
 Primary working directories    : /global/cscratch1/sd/bkincaid
 Secondary working directories  : /global/cscratch1/sd/bkincaid
 Wavefunction directory         : /global/homes/b/bkincaid/wfu/
 Main file repository           : /global/cscratch1/sd/bkincaid/

 SHA1      : 19cd028119e0e09f93f0674bd8af7968d9b3eff6
 NAME      : 2015.1.36
 ARCHNAME  : linux/x86_64
 FC        : /opt/cray/pe/craype/2.5.14/bin/ftn
 BLASLIB   : -L/opt/intel/compilers_and_libraries_2018.1.163/linux/mkl/lib/intel64 -Wl,-_start-group -lmkl_intel_ilp64 -lmkl_intel_thread -lmkl_core -Wl,-_end-group -liomp5
 id        : lbl

 Nodes     nprocs
 nid00759    23
 Number of processes for MPI-2 version of Molpro:   nprocs(total)=   24   nprocs(compute)=   23   nprocs(helper)=    1

 Using customized tuning parameters: mindgm=7; mindgv=16; mindgc=1; mindgr=1; noblas=0; minvec=7
 default implementation of scratch files=sf  

 ***,Calculation for PdH groundstate
 memory,512,m
 gthresh,twoint=1.0E-12
 gthresh,throvl=1.0E-12
                                                                                 !symmetry,nosym
 
 
 basis={
 Including file /global/u1/b/bkincaid/molpro/Pd/molecules/PdH/tz/ecps/bk16.2/bk16.2
 Including file /global/u1/b/bkincaid/molpro/Pd/molecules/PdH/tz/ecps/bk16.2/Pd-aug-cc-pwCVTZ.basis
 ecp,H,0,1,0
 3
 1, 21.24359508259891,   1.00000000000000
 3, 21.24359508259891,  21.24359508259891
 2, 21.77696655044365, -10.85192405303825
 1
 2, 1.000000000000000,   0.00000000000000
 Including file /global/u1/b/bkincaid/molpro/Pd/molecules/PdH/tz/ecps/bk16.2/H-aug-cc-pVTZ.basis
 }
 
 ne = 19
 
 A1=5
 B1=2
 B2=2
 A2=1
 
 do i=1,11
 z(i) = 1.679 - 0.05*(i-1)
 geometry={
 2
 PdH
 Pd 0.0 0.0 0.0
 H 0.0 0.0 z(i)
 }
 {rhf
 wf,nelec=ne,spin=1,sym=1
 occ,A1,B1,B2,A2
 closed,A1-1,B1,B2,A2
 }
 scf(i)=energy
 _CC_NORM_MAX=2.0
 {rccsd(t);maxit,100;core}
 ccsd(i)=energy
 enddo
 
 table,z,scf,ccsd
 save
 type,csv

 Variables initialized (889), CPU time= 0.01 sec
 Commands  initialized (702), CPU time= 0.02 sec, 572 directives.
 Default parameters read. Elapsed time= 0.19 sec

 Checking input...
 Passed
1


                                         ***  PROGRAM SYSTEM MOLPRO  ***
                                       Copyright, TTI GmbH Stuttgart, 2015
                                    Version 2015.1 linked Dec 29 2018 15:55:43


 **********************************************************************************************************************************
 LABEL *   Calculation for PdH groundstate                                               
  64 bit mpp version                                                                     DATE: 13-Apr-21          TIME: 10:57:37  
 **********************************************************************************************************************************

 SHA1:             19cd028119e0e09f93f0674bd8af7968d9b3eff6
 **********************************************************************************************************************************

 THRESHOLDS:

 ZERO    =  1.00D-12  ONEINT  =  1.00D-12  TWOINT  =  1.00D-12  PREFAC  =  1.00D-14  LOCALI  =  1.00D-09  EORDER  =  1.00D-04
 ENERGY  =  0.00D+00  ETEST   =  0.00D+00  EDENS   =  0.00D+00  THRDEDEF=  1.00D-06  GRADIENT=  1.00D-02  STEP    =  1.00D-03
 ORBITAL =  1.00D-05  CIVEC   =  1.00D-05  COEFF   =  1.00D-04  PRINTCI =  5.00D-02  PUNCHCI =  9.90D+01  OPTGRAD =  3.00D-04
 OPTENERG=  1.00D-06  OPTSTEP =  3.00D-04  THRGRAD =  1.00D-10  COMPRESS=  1.00D-11  VARMIN  =  1.00D-07  VARMAX  =  1.00D-03
 THRDOUB =  0.00D+00  THRDIV  =  1.00D-05  THRRED  =  1.00D-07  THRPSP  =  1.00D+00  THRDC   =  1.00D-10  THRCS   =  1.00D-10
 THRNRM  =  1.00D-08  THREQ   =  0.00D+00  THRDE   =  1.00D+00  THRREF  =  1.00D-05  SPARFAC =  1.00D+00  THRDLP  =  1.00D-07
 THRDIA  =  1.00D-10  THRDLS  =  1.00D-07  THRGPS  =  0.00D+00  THRKEX  =  0.00D+00  THRDIS  =  2.00D-01  THRVAR  =  1.00D-10
 THRLOC  =  1.00D-06  THRGAP  =  1.00D-06  THRLOCT = -1.00D+00  THRGAPT = -1.00D+00  THRORB  =  1.00D-06  THRMLTP =  0.00D+00
 THRCPQCI=  1.00D-10  KEXTA   =  0.00D+00  THRCOARS=  0.00D+00  SYMTOL  =  1.00D-06  GRADTOL =  1.00D-06  THROVL  =  1.00D-08
 THRORTH =  1.00D-08  GRID    =  1.00D-06  GRIDMAX =  1.00D-03  DTMAX   =  0.00D+00  THROCCDE=  1.00D-01  THROCCDE=  1.00D-01



 THRESHOLDS:

 ZERO    =  1.00D-12  ONEINT  =  1.00D-12  TWOINT  =  1.00D-12  PREFAC  =  1.00D-14  LOCALI  =  1.00D-09  EORDER  =  1.00D-04
 ENERGY  =  0.00D+00  ETEST   =  0.00D+00  EDENS   =  0.00D+00  THRDEDEF=  1.00D-06  GRADIENT=  1.00D-02  STEP    =  1.00D-03
 ORBITAL =  1.00D-05  CIVEC   =  1.00D-05  COEFF   =  1.00D-04  PRINTCI =  5.00D-02  PUNCHCI =  9.90D+01  OPTGRAD =  3.00D-04
 OPTENERG=  1.00D-06  OPTSTEP =  3.00D-04  THRGRAD =  1.00D-10  COMPRESS=  1.00D-11  VARMIN  =  1.00D-07  VARMAX  =  1.00D-03
 THRDOUB =  0.00D+00  THRDIV  =  1.00D-05  THRRED  =  1.00D-07  THRPSP  =  1.00D+00  THRDC   =  1.00D-10  THRCS   =  1.00D-10
 THRNRM  =  1.00D-08  THREQ   =  0.00D+00  THRDE   =  1.00D+00  THRREF  =  1.00D-05  SPARFAC =  1.00D+00  THRDLP  =  1.00D-07
 THRDIA  =  1.00D-10  THRDLS  =  1.00D-07  THRGPS  =  0.00D+00  THRKEX  =  0.00D+00  THRDIS  =  2.00D-01  THRVAR  =  1.00D-10
 THRLOC  =  1.00D-06  THRGAP  =  1.00D-06  THRLOCT = -1.00D+00  THRGAPT = -1.00D+00  THRORB  =  1.00D-06  THRMLTP =  0.00D+00
 THRCPQCI=  1.00D-10  KEXTA   =  0.00D+00  THRCOARS=  0.00D+00  SYMTOL  =  1.00D-06  GRADTOL =  1.00D-06  THROVL  =  1.00D-12
 THRORTH =  1.00D-08  GRID    =  1.00D-06  GRIDMAX =  1.00D-03  DTMAX   =  0.00D+00  THROCCDE=  1.00D-01  THROCCDE=  1.00D-01



 Variable memory set to  512000000 words,  buffer space   230000 words

 SETTING BASIS          =    USERDEF
 SETTING NE             =        19.00000000                                  
 SETTING A1             =         5.00000000                                  
 SETTING B1             =         2.00000000                                  
 SETTING B2             =         2.00000000                                  
 SETTING A2             =         1.00000000                                  

 DO I                   =         1.00000000   
 SETTING Z(1)           =         1.67900000                                  

Geometry recognized as XYZ



 Recomputing integrals since basis changed


 Using spherical harmonics



 PROGRAM * SEWARD (Integral evaluation for generally contracted gaussian basis sets)     Author: Roland Lindh, 1990

 Geometry written to block  1 of record 700


 Point group  C2v 



 ATOMIC COORDINATES

 NR  ATOM    CHARGE       X              Y              Z

   1  PD     18.00    0.000000000    0.000000000    0.000000000
   2  H       1.00    0.000000000    0.000000000    3.172850163

 Bond lengths in Bohr (Angstrom)

 1-2  3.172850163
     ( 1.679000000)

 NUCLEAR CHARGE:                   19
 NUMBER OF PRIMITIVE AOS:         312
 NUMBER OF SYMMETRY AOS:          263
 NUMBER OF CONTRACTIONS:          263   ( 116A1  +  59B1  +  59B2  +  29A2  )
 NUMBER OF CORE ORBITALS:           4   (   2A1  +   1B1  +   1B2  +   0A2  )
 NUMBER OF VALENCE ORBITALS:        7   (   4A1  +   1B1  +   1B2  +   1A2  )


 NUCLEAR REPULSION ENERGY    5.67313270

 EXTRA SYMMETRY OF AOS IN SYMMETRY 1:   1 1 1 1 1 1 1 1 1 1   1 1 1 1 1 1 1 1 1 1   1 1 1 1 1 1 1 1 1 1   1 1 1 1 1 1 1 1 1 1
                                        1 1 1 1 1 1 1 1 1 1   1 1 1 2 1 2 1 2 1 2   1 2 1 2 1 2 1 2 1 2   1 2 1 2 1 2 1 2 1 2
                                        1 2 1 2 1 2 1 2 1 2   1 2 1 2 1 3 2 1 3 2   1 3 2 1 1 1 1 1 1 1   1 1 1 2 1 2
 EXTRA SYMMETRY OF AOS IN SYMMETRY 2:   1 1 1 1 1 1 1 1 1 1   1 1 1 1 1 1 1 1 1 1   1 1 1 1 1 1 1 1 1 1   1 1 1 1 1 1 1 1 1 1
                                        1 2 1 2 1 2 1 2 1 2   1 2 1 2 1 1 1 1 1
 EXTRA SYMMETRY OF AOS IN SYMMETRY 3:   1 1 1 1 1 1 1 1 1 1   1 1 1 1 1 1 1 1 1 1   1 1 1 1 1 1 1 1 1 1   1 1 1 1 1 1 1 1 1 1
                                        1 2 1 2 1 2 1 2 1 2   1 2 1 2 1 1 1 1 1
 EXTRA SYMMETRY OF AOS IN SYMMETRY 4:   1 1 1 1 1 1 1 1 1 1   1 1 1 1 1 1 1 1 1 1   1 1 2 1 2 1 2 1 1

 Eigenvalues of metric

         1 0.947E-06 0.194E-05 0.903E-05 0.951E-05 0.282E-04 0.119E-03 0.266E-03 0.274E-03
         2 0.982E-06 0.946E-05 0.304E-03 0.471E-03 0.163E-02 0.301E-02 0.406E-02 0.938E-02
         3 0.982E-06 0.946E-05 0.304E-03 0.471E-03 0.163E-02 0.301E-02 0.406E-02 0.938E-02
         4 0.951E-05 0.307E-03 0.302E-02 0.107E-01 0.287E-01 0.530E-01 0.879E-01 0.105E+00


 Contracted 2-electron integrals neglected if value below      1.0D-13
 AO integral compression algorithm  1   Integral accuracy      1.0D-13

     586.154 MB (compressed) written to integral file ( 42.7%)

     Node minimum: 3.408 MB, node maximum: 63.701 MB


 NUMBER OF SORTED TWO-ELECTRON INTEGRALS:    6738189.     BUFFER LENGTH:  32768
 NUMBER OF SEGMENTS:   1  SEGMENT LENGTH:    6738189      RECORD LENGTH: 524288

 Memory used in sort:       7.30 MW

 SORT1 READ   171363336. AND WROTE     2847112. INTEGRALS IN      9 RECORDS. CPU TIME:     7.79 SEC, REAL TIME:     8.00 SEC
 SORT2 READ    66858833. AND WROTE   156329493. INTEGRALS IN   1817 RECORDS. CPU TIME:     0.62 SEC, REAL TIME:     0.77 SEC

 Node minimum:     6738189.  Node maximum:     6815662. integrals

 OPERATOR DM      FOR CENTER  0  COORDINATES:    0.000000    0.000000    0.000000


 **********************************************************************************************************************************
 DATASETS  * FILE   NREC   LENGTH (MB)   RECORD NAMES
              1      19       20.83       500      610      700      900      950      970     1000      129      960     1100   
                                          VAR    BASINP    GEOM    SYMINP    ZMAT    AOBASIS   BASIS     P2S    ABASIS      S 
                                         1400     1410     1420     1200     1210     1080     1600     1650     1700   
                                           T        V       ECP      H0       H01     AOSYM     SMH    MOLCAS    OPER   

 PROGRAMS   *        TOTAL       INT
 CPU TIMES  *        24.94     24.69
 REAL TIME  *        26.74 SEC
 DISK USED  *         1.44 GB      
 GA USED    *         0.00 MB       (max)       0.00 MB       (current)
 **********************************************************************************************************************************


 PROGRAM * RHF-SCF (OPEN SHELL)       Authors: W. Meyer, H.-J. Werner


 NUMBER OF ELECTRONS:      10+    9-    SPACE SYMMETRY=1    SPIN SYMMETRY: Doublet 
 CONVERGENCE THRESHOLDS:    1.00E-05 (Density)    1.00E-07 (Energy)
 MAX. NUMBER OF ITERATIONS:       60
 INTERPOLATION TYPE:            DIIS
 INTERPOLATION STEPS:              2 (START)      1 (STEP)
 LEVEL SHIFTS:                 -0.60 (CLOSED) -0.30 (OPEN) 

 Number of closed-shell orbitals:    9 (   4   2   2   1 )
 Number of open-shell orbitals:      1 (   1   0   0   0 )


 Orbital guess generated from atomic densities. Full valence occupancy:    6   2   2   1

 Molecular orbital dump at record        2100.2

 ITERATION    DDIFF          GRAD             ENERGY        2-EL.EN.            DIPOLE MOMENTS         DIIS   ORB.
    1      0.000D+00      0.000D+00      -127.13989220    214.675808    0.00000    0.00000   -0.47469    0    start
    2      0.000D+00      0.547D-02      -127.16255956    210.423327    0.00000    0.00000   -0.85245    1    diag,B
    3      0.178D-02      0.353D-02      -127.16853934    211.275643    0.00000    0.00000   -0.88832    2    diag,B
    4      0.767D-03      0.112D-02      -127.17385980    211.022615    0.00000    0.00000   -1.03947    3    diag,B
    5      0.657D-03      0.758D-03      -127.17916102    210.720642    0.00000    0.00000   -1.19612    4    diag,B
    6      0.597D-03      0.585D-03      -127.18416458    210.401549    0.00000    0.00000   -1.34615    5    diag,B
    7      0.575D-03      0.470D-03      -127.18822973    210.098119    0.00000    0.00000   -1.47226    6    fixocc
    8      0.652D-03      0.264D-03      -127.18936157    209.905416    0.00000    0.00000   -1.52425    7    diag,B
    9      0.356D-03      0.168D-03      -127.18967111    209.847590    0.00000    0.00000   -1.55271    8    diag,B
   10      0.264D-03      0.990D-04      -127.18967829    209.821715    0.00000    0.00000   -1.55410    9    orth
   11      0.137D-03      0.629D-04      -127.18969920    209.811946    0.00000    0.00000   -1.56018    9    diag,B
   12      0.578D-04      0.188D-04      -127.18970188    209.811866    0.00000    0.00000   -1.56243    9    diag,B
   13      0.257D-04      0.713D-05      -127.18970252    209.812206    0.00000    0.00000   -1.56356    9    diag,B
   14      0.177D-04      0.382D-05      -127.18970267    209.812066    0.00000    0.00000   -1.56437    9    diag,B
   15      0.710D-05      0.295D-05      -127.18970271    209.811842    0.00000    0.00000   -1.56472    9    diag,B
   16      0.396D-05      0.143D-05      -127.18970271    209.811728    0.00000    0.00000   -1.56472    0    orth

 Final alpha occupancy:   5   2   2   1
 Final beta  occupancy:   4   2   2   1

 !RHF STATE 1.1 Energy               -127.189702710406
 Nuclear energy                         5.67313270
 One-electron energy                 -237.76869949
 Two-electron energy                  104.90586409
 Virial quotient                       -2.61142957
 !RHF STATE 1.1 Dipole moment           0.00000000     0.00000000    -1.56471648
 Dipole moment /Debye                   0.00000000     0.00000000    -3.97685212

 Orbital energies:

         1.1          2.1          3.1          4.1          5.1          6.1          7.1
     -3.965824    -2.547063    -0.430882    -0.403294    -0.409597     0.000478     0.031355

         1.2          2.2          3.2          4.2
     -2.543868    -0.453990     0.023570     0.080378

         1.3          2.3          3.3          4.3
     -2.543868    -0.453990     0.023570     0.080378

         1.4          2.4          3.4
     -0.430882     0.097389     0.324584

 HOMO      5.1    -0.409597 =     -11.1457eV
 LUMO      6.1     0.000478 =       0.0130eV
 LUMO-HOMO         0.410075 =      11.1587eV


 **********************************************************************************************************************************
 DATASETS  * FILE   NREC   LENGTH (MB)   RECORD NAMES
              1      19       20.87       500      610      700      900      950      970     1000      129      960     1100   
                                          VAR    BASINP    GEOM    SYMINP    ZMAT    AOBASIS   BASIS     P2S    ABASIS      S 
                                         1400     1410     1420     1200     1210     1080     1600     1650     1700   
                                           T        V       ECP      H0       H01     AOSYM     SMH    MOLCAS    OPER   

              2       4        3.40       700     1000      520     2100   
                                         GEOM     BASIS   MCVARS     RHF  

 PROGRAMS   *        TOTAL       RHF       INT
 CPU TIMES  *        28.58      3.62     24.69
 REAL TIME  *        30.99 SEC
 DISK USED  *         2.07 GB      
 SF USED    *         0.09 MB      
 GA USED    *         0.00 MB       (max)       0.00 MB       (current)
 **********************************************************************************************************************************
 SETTING SCF(1)         =      -127.18970271  AU                              
 SETTING _CC_NORM_MAX   =         2.00000000                                  


 PROGRAM * CCSD (Restricted open-shell coupled cluster)     Authors: C. Hampel, H.-J. Werner, 1991, M. Deegan, P.J. Knowles, 1992


 Convergence thresholds:  THRVAR = 1.00D-08  THRDEN = 1.00D-06

 CCSD(T)     terms to be evaluated (factor= 1.000)


 Number of closed-shell orbitals:   9 (   4   2   2   1 )
 Number of active  orbitals:        1 (   1   0   0   0 )
 Number of external orbitals:     253 ( 111  57  57  28 )

 Memory could be reduced to 77.45 Mwords without degradation in triples

 Number of N-1 electron functions:              19
 Number of N-2 electron functions:             171
 Number of singly external CSFs:              1520
 Number of doubly external CSFs:           2149669
 Total number of CSFs:                     2151189

 Molecular orbitals read from record     2100.2  Type=RHF/CANONICAL (state 1.1)

 Integral transformation finished. Total CPU:   2.51 sec, npass=  1  Memory used:   6.84 MW

 Starting RMP2 calculation

 Wavefunction is spin-projected

 ITER.      SQ.NORM     CORR.ENERGY   TOTAL ENERGY   ENERGY CHANGE        DEN1      VAR(S)    VAR(P)  DIIS     TIME
   1      1.14710215    -0.77118608  -127.96088879    -0.77118608    -0.00136912  0.15D-04  0.56D-03  1  1     4.04
   2      1.14850525    -0.77264577  -127.96234848    -0.00145969    -0.00000894  0.84D-06  0.55D-05  2  2     5.52
   3      1.14863088    -0.77271372  -127.96241643    -0.00006795    -0.00000010  0.27D-07  0.59D-07  3  3     7.25
   4      1.14863698    -0.77271504  -127.96241775    -0.00000132    -0.00000000  0.57D-09  0.68D-09  4  4     8.66
   5      1.14863715    -0.77271505  -127.96241776    -0.00000001    -0.00000000  0.12D-10  0.95D-11  5  5    10.13

 Norm of t1 vector:      0.02967391      S-energy:    -0.00256431      T1 diagnostic:  0.00076613
 Norm of t2 vector:      0.38439122      P-energy:    -0.77015074
                                         Alpha-Beta:  -0.53786093
                                         Alpha-Alpha: -0.12688832
                                         Beta-Beta:   -0.10540149

 Spin contamination <S**2-Sz**2-Sz>     0.00000000
  Reference energy                   -127.189702710406
  RHF-RMP2 correlation energy          -0.772715050555
 !RHF-RMP2 energy                    -127.962417760961
 (NB above energy spin projected)

 Starting RCCSD calculation

 ITER.      SQ.NORM     CORR.ENERGY   TOTAL ENERGY   ENERGY CHANGE        DEN1      VAR(S)    VAR(P)  DIIS     TIME
   1      1.13105309    -0.72507468  -127.91477739    -0.72507468    -0.01942878  0.61D-02  0.33D-02  1  1    14.29
   2      1.14606228    -0.74142437  -127.93112708    -0.01634969    -0.00205798  0.88D-03  0.61D-03  2  2    18.22
   3      1.15861499    -0.74399183  -127.93369454    -0.00256746    -0.00066423  0.75D-03  0.73D-04  3  3    21.95
   4      1.17200556    -0.74611206  -127.93581477    -0.00212023    -0.00024586  0.26D-03  0.35D-04  4  4    25.66
   5      1.18819112    -0.74767598  -127.93737869    -0.00156392    -0.00006485  0.62D-04  0.12D-04  5  5    29.08
   6      1.19685244    -0.74818144  -127.93788415    -0.00050546    -0.00001635  0.17D-04  0.29D-05  6  6    33.39
   7      1.20254067    -0.74850821  -127.93821092    -0.00032677    -0.00000417  0.39D-05  0.83D-06  6  2    37.74
   8      1.20283760    -0.74848707  -127.93818978     0.00002114    -0.00000072  0.54D-06  0.18D-06  6  1    41.70
   9      1.20361351    -0.74852605  -127.93822876    -0.00003898    -0.00000012  0.96D-07  0.31D-07  6  4    45.34
  10      1.20354948    -0.74852103  -127.93822375     0.00000502    -0.00000002  0.18D-07  0.48D-08  6  3    48.74
  11      1.20357697    -0.74852205  -127.93822477    -0.00000102    -0.00000001  0.63D-08  0.11D-08  6  5    52.43
  12      1.20353600    -0.74851736  -127.93822007     0.00000469    -0.00000000  0.17D-08  0.26D-09  6  1    56.30
  13      1.20352867    -0.74851646  -127.93821917     0.00000090    -0.00000000  0.62D-09  0.12D-09  6  6    60.23

 Norm of t1 vector:      0.23243491      S-energy:    -0.00264870      T1 diagnostic:  0.03718467
                                                                       D1 diagnostic:  0.11599309
 Norm of t2 vector:      0.38665577      P-energy:    -0.74586776
                                         Alpha-Beta:  -0.54081246
                                         Alpha-Alpha: -0.11121638
                                         Beta-Beta:   -0.09383892

 Singles amplitudes (print threshold =  0.500E-01):

         I         SYM. A    A   T(IA) [Alpha-Alpha]

         5         1         2      0.06840469
         5         1         4      0.06338529
 
         I         SYM. A    A   T(IA) [Beta-Beta]

         4         1         1     -0.16400065

 Spin contamination <S**2-Sz**2-Sz>     0.00000000

 Memory could be reduced to 80.80 Mwords without degradation in triples
 

  Correlated core orbitals:             1.1       2.1       1.2       1.3
  Orbital energies:                    -3.9939   -2.6099   -2.5635   -2.5635
 
  RCCSD core-core energy               -0.117157122730
  RCCSD core-valence energy            -0.262274037878
  RCCSD valence correlation energy     -0.369085296698
 

 RESULTS
 =======

  Reference energy                   -127.189702710406
  RCCSD singles energy                 -0.002648696497
  RCCSD pair energy                    -0.745867760809
  RCCSD correlation energy             -0.748516457306
  Triples (T) contribution             -0.030039549454
  Total correlation energy             -0.778556006760
 
  RHF-RCCSD energy                   -127.938219167713
  RHF-RCCSD[T] energy                -127.970725789807
  RHF-RCCSD-T energy                 -127.968074191714
 !RHF-RCCSD(T) energy                -127.968258717166

 Program statistics:

 Available memory in ccsd:               511999000
 Min. memory needed in ccsd:               6371840
 Max. memory used in ccsd:                 8994336
 Max. memory used in cckext:               7244967 (13 integral passes)
 Max. memory used in cckint:               6842122 ( 1 integral passes)



 **********************************************************************************************************************************
 DATASETS  * FILE   NREC   LENGTH (MB)   RECORD NAMES
              1      19       20.87       500      610      700      900      950      970     1000      129      960     1100   
                                          VAR    BASINP    GEOM    SYMINP    ZMAT    AOBASIS   BASIS     P2S    ABASIS      S 
                                         1400     1410     1420     1200     1210     1080     1600     1650     1700   
                                           T        V       ECP      H0       H01     AOSYM     SMH    MOLCAS    OPER   

              2       4        3.40       700     1000      520     2100   
                                         GEOM     BASIS   MCVARS     RHF  

 PROGRAMS   *        TOTAL  RCCSD(T)       RHF       INT
 CPU TIMES  *       115.55     86.95      3.62     24.69
 REAL TIME  *       192.02 SEC
 DISK USED  *         8.21 GB      
 SF USED    *         1.24 GB      
 GA USED    *         0.00 MB       (max)       0.00 MB       (current)
 **********************************************************************************************************************************
 SETTING CCSD(1)        =      -127.96825872  AU                              

 DO I                   =         2.00000000   
 SETTING Z(2)           =         1.62900000                                  

Geometry recognized as XYZ



 Recomputing integrals since geometry changed


 PROGRAM * SEWARD (Integral evaluation for generally contracted gaussian basis sets)     Author: Roland Lindh, 1990

 Geometry written to block  1 of record 700


 Point group  C2v 



 ATOMIC COORDINATES

 NR  ATOM    CHARGE       X              Y              Z

   1  PD     18.00    0.000000000    0.000000000    0.000000000
   2  H       1.00    0.000000000    0.000000000    3.078363857

 Bond lengths in Bohr (Angstrom)

 1-2  3.078363857
     ( 1.629000000)

 NUCLEAR CHARGE:                   19
 NUMBER OF PRIMITIVE AOS:         312
 NUMBER OF SYMMETRY AOS:          263
 NUMBER OF CONTRACTIONS:          263   ( 116A1  +  59B1  +  59B2  +  29A2  )
 NUMBER OF CORE ORBITALS:           4   (   2A1  +   1B1  +   1B2  +   0A2  )
 NUMBER OF VALENCE ORBITALS:        7   (   4A1  +   1B1  +   1B2  +   1A2  )


 NUCLEAR REPULSION ENERGY    5.84726200

 EXTRA SYMMETRY OF AOS IN SYMMETRY 1:   1 1 1 1 1 1 1 1 1 1   1 1 1 1 1 1 1 1 1 1   1 1 1 1 1 1 1 1 1 1   1 1 1 1 1 1 1 1 1 1
                                        1 1 1 1 1 1 1 1 1 1   1 1 1 2 1 2 1 2 1 2   1 2 1 2 1 2 1 2 1 2   1 2 1 2 1 2 1 2 1 2
                                        1 2 1 2 1 2 1 2 1 2   1 2 1 2 1 3 2 1 3 2   1 3 2 1 1 1 1 1 1 1   1 1 1 2 1 2
 EXTRA SYMMETRY OF AOS IN SYMMETRY 2:   1 1 1 1 1 1 1 1 1 1   1 1 1 1 1 1 1 1 1 1   1 1 1 1 1 1 1 1 1 1   1 1 1 1 1 1 1 1 1 1
                                        1 2 1 2 1 2 1 2 1 2   1 2 1 2 1 1 1 1 1
 EXTRA SYMMETRY OF AOS IN SYMMETRY 3:   1 1 1 1 1 1 1 1 1 1   1 1 1 1 1 1 1 1 1 1   1 1 1 1 1 1 1 1 1 1   1 1 1 1 1 1 1 1 1 1
                                        1 2 1 2 1 2 1 2 1 2   1 2 1 2 1 1 1 1 1
 EXTRA SYMMETRY OF AOS IN SYMMETRY 4:   1 1 1 1 1 1 1 1 1 1   1 1 1 1 1 1 1 1 1 1   1 1 2 1 2 1 2 1 1

 Eigenvalues of metric

         1 0.939E-06 0.194E-05 0.901E-05 0.951E-05 0.280E-04 0.119E-03 0.225E-03 0.272E-03
         2 0.982E-06 0.946E-05 0.304E-03 0.471E-03 0.163E-02 0.301E-02 0.405E-02 0.935E-02
         3 0.982E-06 0.946E-05 0.304E-03 0.471E-03 0.163E-02 0.301E-02 0.405E-02 0.935E-02
         4 0.951E-05 0.307E-03 0.302E-02 0.107E-01 0.287E-01 0.530E-01 0.873E-01 0.105E+00


 Contracted 2-electron integrals neglected if value below      1.0D-13
 AO integral compression algorithm  1   Integral accuracy      1.0D-13

     588.251 MB (compressed) written to integral file ( 43.0%)

     Node minimum: 6.291 MB, node maximum: 63.701 MB


 NUMBER OF SORTED TWO-ELECTRON INTEGRALS:    6738189.     BUFFER LENGTH:  32768
 NUMBER OF SEGMENTS:   1  SEGMENT LENGTH:    6738189      RECORD LENGTH: 524288

 Memory used in sort:       7.30 MW

 SORT1 READ   171363336. AND WROTE     2857933. INTEGRALS IN      9 RECORDS. CPU TIME:     4.66 SEC, REAL TIME:     5.68 SEC
 SORT2 READ    67105292. AND WROTE   156329493. INTEGRALS IN   2829 RECORDS. CPU TIME:     0.65 SEC, REAL TIME:     1.09 SEC

 Node minimum:     6738189.  Node maximum:     6815662. integrals

 OPERATOR DM      FOR CENTER  0  COORDINATES:    0.000000    0.000000    0.000000


 **********************************************************************************************************************************
 DATASETS  * FILE   NREC   LENGTH (MB)   RECORD NAMES
              1      19       20.83       500      610      700      900      950      970     1000      129      960     1100   
                                          VAR    BASINP    GEOM    SYMINP    ZMAT    AOBASIS   BASIS     P2S    ABASIS      S 
                                         1400     1410     1420     1200     1210     1080     1600     1650     1700   
                                           T        V       ECP      H0       H01     AOSYM     SMH    MOLCAS    OPER   

              2       4        3.40       700     1000      520     2100   
                                         GEOM     BASIS   MCVARS     RHF  

 PROGRAMS   *        TOTAL       INT  RCCSD(T)       RHF       INT
 CPU TIMES  *       137.24     21.69     86.95      3.62     24.69
 REAL TIME  *       215.80 SEC
 DISK USED  *         8.27 GB      
 SF USED    *         1.24 GB      
 GA USED    *         0.00 MB       (max)       0.00 MB       (current)
 **********************************************************************************************************************************


 PROGRAM * RHF-SCF (OPEN SHELL)       Authors: W. Meyer, H.-J. Werner


 NUMBER OF ELECTRONS:      10+    9-    SPACE SYMMETRY=1    SPIN SYMMETRY: Doublet 
 CONVERGENCE THRESHOLDS:    1.00E-05 (Density)    1.00E-07 (Energy)
 MAX. NUMBER OF ITERATIONS:       60
 INTERPOLATION TYPE:            DIIS
 INTERPOLATION STEPS:              2 (START)      1 (STEP)
 LEVEL SHIFTS:                 -0.60 (CLOSED) -0.30 (OPEN) 

 Number of closed-shell orbitals:    9 (   4   2   2   1 )
 Number of open-shell orbitals:      1 (   1   0   0   0 )


 Molecular orbitals read from record     2100.2  Type=RHF/CANONICAL (state 1.1)

 Molecular orbital dump at record        2100.2

 ITERATION    DDIFF          GRAD             ENERGY        2-EL.EN.            DIPOLE MOMENTS         DIIS   ORB.
    1      0.000D+00      0.000D+00      -127.18961876    210.155996    0.00000    0.00000   -1.53148    0    start
    2      0.000D+00      0.209D-02      -127.18985102    210.162316    0.00000    0.00000   -1.53395    1    diag,B
    3      0.204D-03      0.134D-03      -127.18990191    210.179078    0.00000    0.00000   -1.52759    2    diag,B
    4      0.528D-04      0.807D-04      -127.18994712    210.193662    0.00000    0.00000   -1.51952    3    diag,B
    5      0.517D-04      0.534D-04      -127.18998379    210.215218    0.00000    0.00000   -1.50829    4    diag,B
    6      0.507D-04      0.353D-04      -127.19000509    210.233229    0.00000    0.00000   -1.49662    5    diag,B
    7      0.519D-04      0.152D-04      -127.19000831    210.241952    0.00000    0.00000   -1.49246    6    diag,B
    8      0.211D-04      0.673D-05      -127.19000860    210.242648    0.00000    0.00000   -1.49199    7    orth
    9      0.785D-05      0.329D-05      -127.19000866    210.243166    0.00000    0.00000   -1.49234    8    diag,B
   10      0.609D-05      0.155D-05      -127.19000867    210.243282    0.00000    0.00000   -1.49239    0    orth

 Final alpha occupancy:   5   2   2   1
 Final beta  occupancy:   4   2   2   1

 !RHF STATE 1.1 Energy               -127.190008670852
 Nuclear energy                         5.84726200
 One-electron energy                 -238.15891148
 Two-electron energy                  105.12164081
 Virial quotient                       -2.61051788
 !RHF STATE 1.1 Dipole moment           0.00000000     0.00000000    -1.49238943
 Dipole moment /Debye                   0.00000000     0.00000000    -3.79302712

 Orbital energies:

         1.1          2.1          3.1          4.1          5.1          6.1          7.1
     -3.962616    -2.544605    -0.427563    -0.414927    -0.395453     0.001963     0.030943

         1.2          2.2          3.2          4.2
     -2.540450    -0.450973     0.023725     0.080626

         1.3          2.3          3.3          4.3
     -2.540450    -0.450973     0.023725     0.080626

         1.4          2.4          3.4
     -0.427563     0.097639     0.325379

 HOMO      5.1    -0.395453 =     -10.7608eV
 LUMO      6.1     0.001963 =       0.0534eV
 LUMO-HOMO         0.397416 =      10.8142eV


 **********************************************************************************************************************************
 DATASETS  * FILE   NREC   LENGTH (MB)   RECORD NAMES
              1      19       20.87       500      610      700      900      950      970     1000      129      960     1100   
                                          VAR    BASINP    GEOM    SYMINP    ZMAT    AOBASIS   BASIS     P2S    ABASIS      S 
                                         1400     1410     1420     1200     1210     1080     1600     1650     1700   
                                           T        V       ECP      H0       H01     AOSYM     SMH    MOLCAS    OPER   

              2       4        3.40       700     1000      520     2100   
                                         GEOM     BASIS   MCVARS     RHF  

 PROGRAMS   *        TOTAL       RHF       INT  RCCSD(T)       RHF       INT
 CPU TIMES  *       139.61      2.37     21.69     86.95      3.62     24.69
 REAL TIME  *       218.30 SEC
 DISK USED  *         8.27 GB      
 SF USED    *         1.24 GB      
 GA USED    *         0.00 MB       (max)       0.00 MB       (current)
 **********************************************************************************************************************************
 SETTING SCF(2)         =      -127.19000867  AU                              
 SETTING _CC_NORM_MAX   =         2.00000000                                  


 PROGRAM * CCSD (Restricted open-shell coupled cluster)     Authors: C. Hampel, H.-J. Werner, 1991, M. Deegan, P.J. Knowles, 1992


 Convergence thresholds:  THRVAR = 1.00D-08  THRDEN = 1.00D-06

 CCSD(T)     terms to be evaluated (factor= 1.000)


 Number of closed-shell orbitals:   9 (   4   2   2   1 )
 Number of active  orbitals:        1 (   1   0   0   0 )
 Number of external orbitals:     253 ( 111  57  57  28 )

 Memory could be reduced to 80.26 Mwords without degradation in triples

 Number of N-1 electron functions:              19
 Number of N-2 electron functions:             171
 Number of singly external CSFs:              1520
 Number of doubly external CSFs:           2149669
 Total number of CSFs:                     2151189

 Molecular orbitals read from record     2100.2  Type=RHF/CANONICAL (state 1.1)

 Integral transformation finished. Total CPU:   2.24 sec, npass=  1  Memory used:   6.84 MW

 Starting RMP2 calculation

 Wavefunction is spin-projected

 ITER.      SQ.NORM     CORR.ENERGY   TOTAL ENERGY   ENERGY CHANGE        DEN1      VAR(S)    VAR(P)  DIIS     TIME
   1      1.14855247    -0.77560616  -127.96561483    -0.77560616    -0.00136756  0.16D-04  0.55D-03  1  1     2.87
   2      1.14994024    -0.77706345  -127.96707212    -0.00145729    -0.00000847  0.87D-06  0.51D-05  2  2     3.36
   3      1.15006018    -0.77712896  -127.96713763    -0.00006551    -0.00000009  0.28D-07  0.52D-07  3  3     3.82
   4      1.15006579    -0.77713016  -127.96713883    -0.00000120    -0.00000000  0.55D-09  0.58D-09  4  4     4.19
   5      1.15006595    -0.77713018  -127.96713885    -0.00000001    -0.00000000  0.12D-10  0.78D-11  5  5     4.76

 Norm of t1 vector:      0.03005731      S-energy:    -0.00250629      T1 diagnostic:  0.00077799
 Norm of t2 vector:      0.38621562      P-energy:    -0.77462389
                                         Alpha-Beta:  -0.54039084
                                         Alpha-Alpha: -0.12769120
                                         Beta-Beta:   -0.10654184

 Spin contamination <S**2-Sz**2-Sz>     0.00000000
  Reference energy                   -127.190008670852
  RHF-RMP2 correlation energy          -0.777130175538
 !RHF-RMP2 energy                    -127.967138846390
 (NB above energy spin projected)

 Starting RCCSD calculation

 ITER.      SQ.NORM     CORR.ENERGY   TOTAL ENERGY   ENERGY CHANGE        DEN1      VAR(S)    VAR(P)  DIIS     TIME
   1      1.13110695    -0.72757848  -127.91758715    -0.72757848    -0.01974415  0.60D-02  0.34D-02  1  1     7.44
   2      1.14587787    -0.74415519  -127.93416386    -0.01657671    -0.00200073  0.85D-03  0.58D-03  2  2    10.05
   3      1.15771380    -0.74658435  -127.93659302    -0.00242916    -0.00063015  0.71D-03  0.68D-04  3  3    12.64
   4      1.17031642    -0.74861589  -127.93862456    -0.00203155    -0.00022692  0.24D-03  0.31D-04  4  4    15.13
   5      1.18501887    -0.75006990  -127.94007857    -0.00145400    -0.00005911  0.57D-04  0.11D-04  5  5    17.86
   6      1.19251133    -0.75050802  -127.94051669    -0.00043813    -0.00001511  0.16D-04  0.25D-05  6  6    20.38
   7      1.19768051    -0.75081239  -127.94082106    -0.00030437    -0.00000374  0.36D-05  0.67D-06  6  2    23.14
   8      1.19801448    -0.75079433  -127.94080300     0.00001806    -0.00000064  0.48D-06  0.15D-06  6  1    25.68
   9      1.19863131    -0.75082413  -127.94083280    -0.00002981    -0.00000012  0.10D-06  0.26D-07  6  4    28.22
  10      1.19861011    -0.75082085  -127.94082952     0.00000328    -0.00000003  0.26D-07  0.51D-08  6  3    30.70
  11      1.19862909    -0.75082097  -127.94082964    -0.00000012    -0.00000001  0.10D-07  0.15D-08  6  5    33.16
  12      1.19860176    -0.75081707  -127.94082574     0.00000390    -0.00000000  0.37D-08  0.72D-09  6  4    35.89
  13      1.19859742    -0.75081578  -127.94082445     0.00000129    -0.00000000  0.83D-09  0.18D-09  6  6    38.51
  14      1.19859434    -0.75081538  -127.94082405     0.00000040    -0.00000000  0.26D-09  0.59D-10  6  2    41.10

 Norm of t1 vector:      0.22422122      S-energy:    -0.00255210      T1 diagnostic:  0.03587050
                                                                       D1 diagnostic:  0.10844195
 Norm of t2 vector:      0.38512230      P-energy:    -0.74826328
                                         Alpha-Beta:  -0.54215286
                                         Alpha-Alpha: -0.11165121
                                         Beta-Beta:   -0.09445921

 Singles amplitudes (print threshold =  0.500E-01):

         I         SYM. A    A   T(IA) [Alpha-Alpha]

         5         1         2      0.06840721
         5         1         4      0.06615791
 
         I         SYM. A    A   T(IA) [Beta-Beta]

         4         1         1     -0.15330782

 Spin contamination <S**2-Sz**2-Sz>     0.00000000

 Memory could be reduced to 80.80 Mwords without degradation in triples
 

  Correlated core orbitals:             1.1       2.1       1.2       1.3
  Orbital energies:                    -3.9896   -2.6047   -2.5592   -2.5592
 
  RCCSD core-core energy               -0.116998689258
  RCCSD core-valence energy            -0.262454484199
  RCCSD valence correlation energy     -0.371362202458
 

 RESULTS
 =======

  Reference energy                   -127.190008670852
  RCCSD singles energy                 -0.002552095874
  RCCSD pair energy                    -0.748263280040
  RCCSD correlation energy             -0.750815375915
  Triples (T) contribution             -0.030278530365
  Total correlation energy             -0.781093906280
 
  RHF-RCCSD energy                   -127.940824046767
  RHF-RCCSD[T] energy                -127.973468262871
  RHF-RCCSD-T energy                 -127.970916351824
 !RHF-RCCSD(T) energy                -127.971102577132

 Program statistics:

 Available memory in ccsd:               511999000
 Min. memory needed in ccsd:               6371840
 Max. memory used in ccsd:                 8994336
 Max. memory used in cckext:               7244967 (14 integral passes)
 Max. memory used in cckint:               6842122 ( 1 integral passes)



 **********************************************************************************************************************************
 DATASETS  * FILE   NREC   LENGTH (MB)   RECORD NAMES
              1      19       20.87       500      610      700      900      950      970     1000      129      960     1100   
                                          VAR    BASINP    GEOM    SYMINP    ZMAT    AOBASIS   BASIS     P2S    ABASIS      S 
                                         1400     1410     1420     1200     1210     1080     1600     1650     1700   
                                           T        V       ECP      H0       H01     AOSYM     SMH    MOLCAS    OPER   

              2       4        3.40       700     1000      520     2100   
                                         GEOM     BASIS   MCVARS     RHF  

 PROGRAMS   *        TOTAL  RCCSD(T)       RHF       INT  RCCSD(T)       RHF       INT
 CPU TIMES  *       207.24     67.59      2.37     21.69     86.95      3.62     24.69
 REAL TIME  *       323.51 SEC
 DISK USED  *         8.27 GB      
 SF USED    *         1.24 GB      
 GA USED    *         0.00 MB       (max)       0.00 MB       (current)
 **********************************************************************************************************************************
 SETTING CCSD(2)        =      -127.97110258  AU                              

 DO I                   =         3.00000000   
 SETTING Z(3)           =         1.57900000                                  

Geometry recognized as XYZ



 Recomputing integrals since geometry changed


 PROGRAM * SEWARD (Integral evaluation for generally contracted gaussian basis sets)     Author: Roland Lindh, 1990

 Geometry written to block  1 of record 700


 Point group  C2v 



 ATOMIC COORDINATES

 NR  ATOM    CHARGE       X              Y              Z

   1  PD     18.00    0.000000000    0.000000000    0.000000000
   2  H       1.00    0.000000000    0.000000000    2.983877551

 Bond lengths in Bohr (Angstrom)

 1-2  2.983877551
     ( 1.579000000)

 NUCLEAR CHARGE:                   19
 NUMBER OF PRIMITIVE AOS:         312
 NUMBER OF SYMMETRY AOS:          263
 NUMBER OF CONTRACTIONS:          263   ( 116A1  +  59B1  +  59B2  +  29A2  )
 NUMBER OF CORE ORBITALS:           4   (   2A1  +   1B1  +   1B2  +   0A2  )
 NUMBER OF VALENCE ORBITALS:        7   (   4A1  +   1B1  +   1B2  +   1A2  )


 NUCLEAR REPULSION ENERGY    6.03241912

 EXTRA SYMMETRY OF AOS IN SYMMETRY 1:   1 1 1 1 1 1 1 1 1 1   1 1 1 1 1 1 1 1 1 1   1 1 1 1 1 1 1 1 1 1   1 1 1 1 1 1 1 1 1 1
                                        1 1 1 1 1 1 1 1 1 1   1 1 1 2 1 2 1 2 1 2   1 2 1 2 1 2 1 2 1 2   1 2 1 2 1 2 1 2 1 2
                                        1 2 1 2 1 2 1 2 1 2   1 2 1 2 1 3 2 1 3 2   1 3 2 1 1 1 1 1 1 1   1 1 1 2 1 2
 EXTRA SYMMETRY OF AOS IN SYMMETRY 2:   1 1 1 1 1 1 1 1 1 1   1 1 1 1 1 1 1 1 1 1   1 1 1 1 1 1 1 1 1 1   1 1 1 1 1 1 1 1 1 1
                                        1 2 1 2 1 2 1 2 1 2   1 2 1 2 1 1 1 1 1
 EXTRA SYMMETRY OF AOS IN SYMMETRY 3:   1 1 1 1 1 1 1 1 1 1   1 1 1 1 1 1 1 1 1 1   1 1 1 1 1 1 1 1 1 1   1 1 1 1 1 1 1 1 1 1
                                        1 2 1 2 1 2 1 2 1 2   1 2 1 2 1 1 1 1 1
 EXTRA SYMMETRY OF AOS IN SYMMETRY 4:   1 1 1 1 1 1 1 1 1 1   1 1 1 1 1 1 1 1 1 1   1 1 2 1 2 1 2 1 1

 Eigenvalues of metric

         1 0.930E-06 0.193E-05 0.898E-05 0.951E-05 0.277E-04 0.119E-03 0.188E-03 0.272E-03
         2 0.982E-06 0.947E-05 0.304E-03 0.471E-03 0.163E-02 0.301E-02 0.405E-02 0.931E-02
         3 0.982E-06 0.947E-05 0.304E-03 0.471E-03 0.163E-02 0.301E-02 0.405E-02 0.931E-02
         4 0.951E-05 0.307E-03 0.302E-02 0.107E-01 0.287E-01 0.530E-01 0.866E-01 0.105E+00


 Contracted 2-electron integrals neglected if value below      1.0D-13
 AO integral compression algorithm  1   Integral accuracy      1.0D-13

     591.135 MB (compressed) written to integral file ( 43.2%)

     Node minimum: 4.194 MB, node maximum: 63.701 MB


 NUMBER OF SORTED TWO-ELECTRON INTEGRALS:    6738189.     BUFFER LENGTH:  32768
 NUMBER OF SEGMENTS:   1  SEGMENT LENGTH:    6738189      RECORD LENGTH: 524288

 Memory used in sort:       7.30 MW

 SORT1 READ   171363336. AND WROTE     2867609. INTEGRALS IN      9 RECORDS. CPU TIME:     7.17 SEC, REAL TIME:     7.36 SEC
 SORT2 READ    67333241. AND WROTE   156329493. INTEGRALS IN   2139 RECORDS. CPU TIME:     0.67 SEC, REAL TIME:     0.88 SEC

 Node minimum:     6738189.  Node maximum:     6815662. integrals

 OPERATOR DM      FOR CENTER  0  COORDINATES:    0.000000    0.000000    0.000000


 **********************************************************************************************************************************
 DATASETS  * FILE   NREC   LENGTH (MB)   RECORD NAMES
              1      19       20.83       500      610      700      900      950      970     1000      129      960     1100   
                                          VAR    BASINP    GEOM    SYMINP    ZMAT    AOBASIS   BASIS     P2S    ABASIS      S 
                                         1400     1410     1420     1200     1210     1080     1600     1650     1700   
                                           T        V       ECP      H0       H01     AOSYM     SMH    MOLCAS    OPER   

              2       4        3.40       700     1000      520     2100   
                                         GEOM     BASIS   MCVARS     RHF  

 PROGRAMS   *        TOTAL       INT  RCCSD(T)       RHF       INT  RCCSD(T)       RHF       INT
 CPU TIMES  *       232.14     24.90     67.59      2.37     21.69     86.95      3.62     24.69
 REAL TIME  *       349.05 SEC
 DISK USED  *         8.30 GB      
 SF USED    *         1.24 GB      
 GA USED    *         0.00 MB       (max)       0.00 MB       (current)
 **********************************************************************************************************************************


 PROGRAM * RHF-SCF (OPEN SHELL)       Authors: W. Meyer, H.-J. Werner


 NUMBER OF ELECTRONS:      10+    9-    SPACE SYMMETRY=1    SPIN SYMMETRY: Doublet 
 CONVERGENCE THRESHOLDS:    1.00E-05 (Density)    1.00E-07 (Energy)
 MAX. NUMBER OF ITERATIONS:       60
 INTERPOLATION TYPE:            DIIS
 INTERPOLATION STEPS:              2 (START)      1 (STEP)
 LEVEL SHIFTS:                 -0.60 (CLOSED) -0.30 (OPEN) 

 Number of closed-shell orbitals:    9 (   4   2   2   1 )
 Number of open-shell orbitals:      1 (   1   0   0   0 )


 Molecular orbitals read from record     2100.2  Type=RHF/CANONICAL (state 1.1)

 Molecular orbital dump at record        2100.2

 ITERATION    DDIFF          GRAD             ENERGY        2-EL.EN.            DIPOLE MOMENTS         DIIS   ORB.
    1      0.000D+00      0.000D+00      -127.18893718    210.595795    0.00000    0.00000   -1.46042    0    start
    2      0.000D+00      0.229D-02      -127.18921216    210.605029    0.00000    0.00000   -1.46383    1    diag,B
    3      0.253D-03      0.145D-03      -127.18927182    210.621385    0.00000    0.00000   -1.45690    2    diag,B
    4      0.536D-04      0.873D-04      -127.18932485    210.636432    0.00000    0.00000   -1.44843    3    diag,B
    5      0.559D-04      0.590D-04      -127.18937048    210.658226    0.00000    0.00000   -1.43597    4    diag,B
    6      0.598D-04      0.394D-04      -127.18939857    210.678671    0.00000    0.00000   -1.42207    5    diag,B
    7      0.654D-04      0.165D-04      -127.18940242    210.687920    0.00000    0.00000   -1.41722    6    diag,B
    8      0.240D-04      0.708D-05      -127.18940273    210.688591    0.00000    0.00000   -1.41661    7    orth
    9      0.805D-05      0.347D-05      -127.18940279    210.689201    0.00000    0.00000   -1.41693    8    diag,B
   10      0.646D-05      0.165D-05      -127.18940280    210.689298    0.00000    0.00000   -1.41699    0    orth

 Final alpha occupancy:   5   2   2   1
 Final beta  occupancy:   4   2   2   1

 !RHF STATE 1.1 Energy               -127.189402798364
 Nuclear energy                         6.03241912
 One-electron energy                 -238.56647112
 Two-electron energy                  105.34464920
 Virial quotient                       -2.60942389
 !RHF STATE 1.1 Dipole moment           0.00000000     0.00000000    -1.41699292
 Dipole moment /Debye                   0.00000000     0.00000000    -3.60140086

 Orbital energies:

         1.1          2.1          3.1          4.1          5.1          6.1          7.1
     -3.959481    -2.542458    -0.427603    -0.424272    -0.380333     0.003468     0.030507

         1.2          2.2          3.2          4.2
     -2.537070    -0.448109     0.023859     0.080795

         1.3          2.3          3.3          4.3
     -2.537070    -0.448109     0.023859     0.080795

         1.4          2.4          3.4
     -0.424272     0.097884     0.326141

 HOMO      5.1    -0.380333 =     -10.3494eV
 LUMO      6.1     0.003468 =       0.0944eV
 LUMO-HOMO         0.383801 =      10.4438eV


 **********************************************************************************************************************************
 DATASETS  * FILE   NREC   LENGTH (MB)   RECORD NAMES
              1      19       20.87       500      610      700      900      950      970     1000      129      960     1100   
                                          VAR    BASINP    GEOM    SYMINP    ZMAT    AOBASIS   BASIS     P2S    ABASIS      S 
                                         1400     1410     1420     1200     1210     1080     1600     1650     1700   
                                           T        V       ECP      H0       H01     AOSYM     SMH    MOLCAS    OPER   

              2       4        3.40       700     1000      520     2100   
                                         GEOM     BASIS   MCVARS     RHF  

 PROGRAMS   *        TOTAL       RHF       INT  RCCSD(T)       RHF       INT  RCCSD(T)       RHF       INT
 CPU TIMES  *       234.54      2.40     24.90     67.59      2.37     21.69     86.95      3.62     24.69
 REAL TIME  *       351.64 SEC
 DISK USED  *         8.30 GB      
 SF USED    *         1.24 GB      
 GA USED    *         0.00 MB       (max)       0.00 MB       (current)
 **********************************************************************************************************************************
 SETTING SCF(3)         =      -127.18940280  AU                              
 SETTING _CC_NORM_MAX   =         2.00000000                                  


 PROGRAM * CCSD (Restricted open-shell coupled cluster)     Authors: C. Hampel, H.-J. Werner, 1991, M. Deegan, P.J. Knowles, 1992


 Convergence thresholds:  THRVAR = 1.00D-08  THRDEN = 1.00D-06

 CCSD(T)     terms to be evaluated (factor= 1.000)


 Number of closed-shell orbitals:   9 (   4   2   2   1 )
 Number of active  orbitals:        1 (   1   0   0   0 )
 Number of external orbitals:     253 ( 111  57  57  28 )

 Memory could be reduced to 80.26 Mwords without degradation in triples

 Number of N-1 electron functions:              19
 Number of N-2 electron functions:             171
 Number of singly external CSFs:              1520
 Number of doubly external CSFs:           2149669
 Total number of CSFs:                     2151189

 Molecular orbitals read from record     2100.2  Type=RHF/CANONICAL (state 1.1)

 Integral transformation finished. Total CPU:   2.34 sec, npass=  1  Memory used:   6.84 MW

 Starting RMP2 calculation

 Wavefunction is spin-projected

 ITER.      SQ.NORM     CORR.ENERGY   TOTAL ENERGY   ENERGY CHANGE        DEN1      VAR(S)    VAR(P)  DIIS     TIME
   1      1.15012785    -0.78034053  -127.96974333    -0.78034053    -0.00136354  0.17D-04  0.55D-03  1  1     5.18
   2      1.15149657    -0.78179241  -127.97119521    -0.00145188    -0.00000789  0.86D-06  0.47D-05  2  2     6.74
   3      1.15161006    -0.78185499  -127.97125778    -0.00006258    -0.00000008  0.28D-07  0.44D-07  3  3     8.24
   4      1.15161512    -0.78185604  -127.97125884    -0.00000106    -0.00000000  0.53D-09  0.47D-09  4  4     9.63
   5      1.15161527    -0.78185606  -127.97125886    -0.00000002    -0.00000000  0.11D-10  0.59D-11  5  5    11.17

 Norm of t1 vector:      0.03030470      S-energy:    -0.00242699      T1 diagnostic:  0.00077837
 Norm of t2 vector:      0.38819697      P-energy:    -0.77942907
                                         Alpha-Beta:  -0.54311548
                                         Alpha-Alpha: -0.12855863
                                         Beta-Beta:   -0.10775496

 Spin contamination <S**2-Sz**2-Sz>     0.00000000
  Reference energy                   -127.189402798364
  RHF-RMP2 correlation energy          -0.781856061535
 !RHF-RMP2 energy                    -127.971258859899
 (NB above energy spin projected)

 Starting RCCSD calculation

 ITER.      SQ.NORM     CORR.ENERGY   TOTAL ENERGY   ENERGY CHANGE        DEN1      VAR(S)    VAR(P)  DIIS     TIME
   1      1.13112025    -0.73024607  -127.91964887    -0.73024607    -0.02003474  0.59D-02  0.34D-02  1  1    14.73
   2      1.14558500    -0.74704190  -127.93644470    -0.01679583    -0.00192602  0.80D-03  0.55D-03  2  2    18.04
   3      1.15653652    -0.74930282  -127.93870562    -0.00226091    -0.00058719  0.65D-03  0.62D-04  3  3    21.38
   4      1.16804914    -0.75120531  -127.94060811    -0.00190249    -0.00020593  0.22D-03  0.27D-04  4  4    24.85
   5      1.18105794    -0.75253100  -127.94193380    -0.00132569    -0.00005301  0.53D-04  0.90D-05  5  5    28.45
   6      1.18744178    -0.75290448  -127.94230728    -0.00037348    -0.00001372  0.15D-04  0.21D-05  6  6    32.08
   7      1.19200782    -0.75317832  -127.94258111    -0.00027383    -0.00000331  0.33D-05  0.54D-06  6  2    35.67
   8      1.19237952    -0.75316415  -127.94256695     0.00001417    -0.00000057  0.44D-06  0.13D-06  6  1    39.35
   9      1.19286377    -0.75318597  -127.94258877    -0.00002182    -0.00000012  0.11D-06  0.23D-07  6  4    43.10
  10      1.19287888    -0.75318430  -127.94258710     0.00000167    -0.00000003  0.32D-07  0.52D-08  6  3    46.75
  11      1.19289466    -0.75318399  -127.94258679     0.00000031    -0.00000001  0.12D-07  0.18D-08  6  5    51.45
  12      1.19287664    -0.75317998  -127.94258278     0.00000401    -0.00000000  0.26D-08  0.46D-09  6  1    58.22
  13      1.19287612    -0.75317930  -127.94258210     0.00000068    -0.00000000  0.62D-09  0.17D-09  6  6    62.09

 Norm of t1 vector:      0.21403579      S-energy:    -0.00243235      T1 diagnostic:  0.03424061
                                                                       D1 diagnostic:  0.09931885
 Norm of t2 vector:      0.38349029      P-energy:    -0.75074696
                                         Alpha-Beta:  -0.54354531
                                         Alpha-Alpha: -0.11211210
                                         Beta-Beta:   -0.09508955

 Singles amplitudes (print threshold =  0.500E-01):

         I         SYM. A    A   T(IA) [Alpha-Alpha]

         5         1         2      0.06742334
         5         1         4      0.06825651
         5         1         8      0.05117739
 
         I         SYM. A    A   T(IA) [Beta-Beta]

         3         1         1     -0.14038659

 Spin contamination <S**2-Sz**2-Sz>     0.00000000

 Memory could be reduced to 80.80 Mwords without degradation in triples
 

  Correlated core orbitals:             1.1       2.1       1.2       1.3
  Orbital energies:                    -3.9852   -2.5993   -2.5548   -2.5548
 
  RCCSD core-core energy               -0.116813857462
  RCCSD core-valence energy            -0.262628636924
  RCCSD valence correlation energy     -0.373736808298
 

 RESULTS
 =======

  Reference energy                   -127.189402798364
  RCCSD singles energy                 -0.002432345803
  RCCSD pair energy                    -0.750746956882
  RCCSD correlation energy             -0.753179302684
  Triples (T) contribution             -0.030532052401
  Total correlation energy             -0.783711355085
 
  RHF-RCCSD energy                   -127.942582101048
  RHF-RCCSD[T] energy                -127.975359661553
  RHF-RCCSD-T energy                 -127.972925388234
 !RHF-RCCSD(T) energy                -127.973114153448

 Program statistics:

 Available memory in ccsd:               511999000
 Min. memory needed in ccsd:               6371840
 Max. memory used in ccsd:                 8994336
 Max. memory used in cckext:               7244967 (13 integral passes)
 Max. memory used in cckint:               6842122 ( 1 integral passes)



 **********************************************************************************************************************************
 DATASETS  * FILE   NREC   LENGTH (MB)   RECORD NAMES
              1      19       20.87       500      610      700      900      950      970     1000      129      960     1100   
                                          VAR    BASINP    GEOM    SYMINP    ZMAT    AOBASIS   BASIS     P2S    ABASIS      S 
                                         1400     1410     1420     1200     1210     1080     1600     1650     1700   
                                           T        V       ECP      H0       H01     AOSYM     SMH    MOLCAS    OPER   

              2       4        3.40       700     1000      520     2100   
                                         GEOM     BASIS   MCVARS     RHF  

 PROGRAMS   *        TOTAL  RCCSD(T)       RHF       INT  RCCSD(T)       RHF       INT  RCCSD(T)       RHF       INT
 CPU TIMES  *       323.19     88.65      2.40     24.90     67.59      2.37     21.69     86.95      3.62     24.69
 REAL TIME  *       468.90 SEC
 DISK USED  *         8.30 GB      
 SF USED    *         1.24 GB      
 GA USED    *         0.00 MB       (max)       0.00 MB       (current)
 **********************************************************************************************************************************
 SETTING CCSD(3)        =      -127.97311415  AU                              

 DO I                   =         4.00000000   
 SETTING Z(4)           =         1.52900000                                  

Geometry recognized as XYZ



 Recomputing integrals since geometry changed


 PROGRAM * SEWARD (Integral evaluation for generally contracted gaussian basis sets)     Author: Roland Lindh, 1990

 Geometry written to block  1 of record 700


 Point group  C2v 



 ATOMIC COORDINATES

 NR  ATOM    CHARGE       X              Y              Z

   1  PD     18.00    0.000000000    0.000000000    0.000000000
   2  H       1.00    0.000000000    0.000000000    2.889391244

 Bond lengths in Bohr (Angstrom)

 1-2  2.889391244
     ( 1.529000000)

 NUCLEAR CHARGE:                   19
 NUMBER OF PRIMITIVE AOS:         312
 NUMBER OF SYMMETRY AOS:          263
 NUMBER OF CONTRACTIONS:          263   ( 116A1  +  59B1  +  59B2  +  29A2  )
 NUMBER OF CORE ORBITALS:           4   (   2A1  +   1B1  +   1B2  +   0A2  )
 NUMBER OF VALENCE ORBITALS:        7   (   4A1  +   1B1  +   1B2  +   1A2  )


 NUCLEAR REPULSION ENERGY    6.22968594

 EXTRA SYMMETRY OF AOS IN SYMMETRY 1:   1 1 1 1 1 1 1 1 1 1   1 1 1 1 1 1 1 1 1 1   1 1 1 1 1 1 1 1 1 1   1 1 1 1 1 1 1 1 1 1
                                        1 1 1 1 1 1 1 1 1 1   1 1 1 2 1 2 1 2 1 2   1 2 1 2 1 2 1 2 1 2   1 2 1 2 1 2 1 2 1 2
                                        1 2 1 2 1 2 1 2 1 2   1 2 1 2 1 3 2 1 3 2   1 3 2 1 1 1 1 1 1 1   1 1 1 2 1 2
 EXTRA SYMMETRY OF AOS IN SYMMETRY 2:   1 1 1 1 1 1 1 1 1 1   1 1 1 1 1 1 1 1 1 1   1 1 1 1 1 1 1 1 1 1   1 1 1 1 1 1 1 1 1 1
                                        1 2 1 2 1 2 1 2 1 2   1 2 1 2 1 1 1 1 1
 EXTRA SYMMETRY OF AOS IN SYMMETRY 3:   1 1 1 1 1 1 1 1 1 1   1 1 1 1 1 1 1 1 1 1   1 1 1 1 1 1 1 1 1 1   1 1 1 1 1 1 1 1 1 1
                                        1 2 1 2 1 2 1 2 1 2   1 2 1 2 1 1 1 1 1
 EXTRA SYMMETRY OF AOS IN SYMMETRY 4:   1 1 1 1 1 1 1 1 1 1   1 1 1 1 1 1 1 1 1 1   1 1 2 1 2 1 2 1 1

 Eigenvalues of metric

         1 0.922E-06 0.192E-05 0.893E-05 0.951E-05 0.273E-04 0.118E-03 0.157E-03 0.271E-03
         2 0.982E-06 0.947E-05 0.304E-03 0.471E-03 0.163E-02 0.301E-02 0.405E-02 0.926E-02
         3 0.982E-06 0.947E-05 0.304E-03 0.471E-03 0.163E-02 0.301E-02 0.405E-02 0.926E-02
         4 0.951E-05 0.307E-03 0.302E-02 0.107E-01 0.287E-01 0.529E-01 0.858E-01 0.105E+00


 Contracted 2-electron integrals neglected if value below      1.0D-13
 AO integral compression algorithm  1   Integral accuracy      1.0D-13

     594.543 MB (compressed) written to integral file ( 43.3%)

     Node minimum: 6.291 MB, node maximum: 63.701 MB


 NUMBER OF SORTED TWO-ELECTRON INTEGRALS:    6738189.     BUFFER LENGTH:  32768
 NUMBER OF SEGMENTS:   1  SEGMENT LENGTH:    6738189      RECORD LENGTH: 524288

 Memory used in sort:       7.30 MW

 SORT1 READ   171363336. AND WROTE     2877006. INTEGRALS IN      9 RECORDS. CPU TIME:     5.37 SEC, REAL TIME:     6.35 SEC
 SORT2 READ    67544471. AND WROTE   156329493. INTEGRALS IN    851 RECORDS. CPU TIME:     0.42 SEC, REAL TIME:     0.58 SEC

 Node minimum:     6738189.  Node maximum:     6815662. integrals

 OPERATOR DM      FOR CENTER  0  COORDINATES:    0.000000    0.000000    0.000000


 **********************************************************************************************************************************
 DATASETS  * FILE   NREC   LENGTH (MB)   RECORD NAMES
              1      19       20.83       500      610      700      900      950      970     1000      129      960     1100   
                                          VAR    BASINP    GEOM    SYMINP    ZMAT    AOBASIS   BASIS     P2S    ABASIS      S 
                                         1400     1410     1420     1200     1210     1080     1600     1650     1700   
                                           T        V       ECP      H0       H01     AOSYM     SMH    MOLCAS    OPER   

              2       4        3.40       700     1000      520     2100   
                                         GEOM     BASIS   MCVARS     RHF  

 PROGRAMS   *        TOTAL       INT  RCCSD(T)       RHF       INT  RCCSD(T)       RHF       INT  RCCSD(T)       RHF       INT
 CPU TIMES  *       345.47     22.27     88.65      2.40     24.90     67.59      2.37     21.69     86.95      3.62     24.69
 REAL TIME  *       492.52 SEC
 DISK USED  *         8.45 GB      
 SF USED    *         1.24 GB      
 GA USED    *         0.00 MB       (max)       0.00 MB       (current)
 **********************************************************************************************************************************


 PROGRAM * RHF-SCF (OPEN SHELL)       Authors: W. Meyer, H.-J. Werner


 NUMBER OF ELECTRONS:      10+    9-    SPACE SYMMETRY=1    SPIN SYMMETRY: Doublet 
 CONVERGENCE THRESHOLDS:    1.00E-05 (Density)    1.00E-07 (Energy)
 MAX. NUMBER OF ITERATIONS:       60
 INTERPOLATION TYPE:            DIIS
 INTERPOLATION STEPS:              2 (START)      1 (STEP)
 LEVEL SHIFTS:                 -0.60 (CLOSED) -0.30 (OPEN) 

 Number of closed-shell orbitals:    9 (   4   2   2   1 )
 Number of open-shell orbitals:      1 (   1   0   0   0 )


 Molecular orbitals read from record     2100.2  Type=RHF/CANONICAL (state 1.1)

 Molecular orbital dump at record        2100.2

 ITERATION    DDIFF          GRAD             ENERGY        2-EL.EN.            DIPOLE MOMENTS         DIIS   ORB.
    1      0.000D+00      0.000D+00      -127.18714721    211.050351    0.00000    0.00000   -1.38640    0    start
    2      0.000D+00      0.251D-02      -127.18747368    211.062786    0.00000    0.00000   -1.39073    1    diag,B
    3      0.317D-03      0.157D-03      -127.18754372    211.078319    0.00000    0.00000   -1.38312    2    diag,B
    4      0.564D-04      0.946D-04      -127.18760560    211.093531    0.00000    0.00000   -1.37417    3    diag,B
    5      0.610D-04      0.650D-04      -127.18766122    211.114685    0.00000    0.00000   -1.36052    4    diag,B
    6      0.703D-04      0.437D-04      -127.18769732    211.136686    0.00000    0.00000   -1.34432    5    diag,B
    7      0.815D-04      0.179D-04      -127.18770195    211.146061    0.00000    0.00000   -1.33868    6    diag,B
    8      0.278D-04      0.736D-05      -127.18770228    211.146682    0.00000    0.00000   -1.33794    7    orth
    9      0.851D-05      0.360D-05      -127.18770234    211.147380    0.00000    0.00000   -1.33824    8    diag,B
   10      0.653D-05      0.173D-05      -127.18770235    211.147439    0.00000    0.00000   -1.33830    0    orth

 Final alpha occupancy:   5   2   2   1
 Final beta  occupancy:   4   2   2   1

 !RHF STATE 1.1 Energy               -127.187702349813
 Nuclear energy                         6.22968594
 One-electron energy                 -238.99110791
 Two-electron energy                  105.57371963
 Virial quotient                       -2.60811305
 !RHF STATE 1.1 Dipole moment           0.00000000     0.00000000    -1.33830030
 Dipole moment /Debye                   0.00000000     0.00000000    -3.40139729

 Orbital energies:

         1.1          2.1          3.1          4.1          5.1          6.1          7.1
     -3.956530    -2.540789    -0.441385    -0.421099    -0.364507     0.004983     0.030045

         1.2          2.2          3.2          4.2
     -2.533830    -0.445516     0.023964     0.080860

         1.3          2.3          3.3          4.3
     -2.533830    -0.445516     0.023964     0.080860

         1.4          2.4          3.4
     -0.421099     0.098122     0.326849

 HOMO      5.1    -0.364507 =      -9.9187eV
 LUMO      6.1     0.004983 =       0.1356eV
 LUMO-HOMO         0.369490 =      10.0543eV


 **********************************************************************************************************************************
 DATASETS  * FILE   NREC   LENGTH (MB)   RECORD NAMES
              1      19       20.87       500      610      700      900      950      970     1000      129      960     1100   
                                          VAR    BASINP    GEOM    SYMINP    ZMAT    AOBASIS   BASIS     P2S    ABASIS      S 
                                         1400     1410     1420     1200     1210     1080     1600     1650     1700   
                                           T        V       ECP      H0       H01     AOSYM     SMH    MOLCAS    OPER   

              2       4        3.40       700     1000      520     2100   
                                         GEOM     BASIS   MCVARS     RHF  

 PROGRAMS   *        TOTAL       RHF       INT  RCCSD(T)       RHF       INT  RCCSD(T)       RHF       INT  RCCSD(T)       RHF
 CPU TIMES  *       347.65      2.18     22.27     88.65      2.40     24.90     67.59      2.37     21.69     86.95      3.62
 REAL TIME  *       494.84 SEC
 DISK USED  *         8.45 GB      
 SF USED    *         1.24 GB      
 GA USED    *         0.00 MB       (max)       0.00 MB       (current)
 **********************************************************************************************************************************
 SETTING SCF(4)         =      -127.18770235  AU                              
 SETTING _CC_NORM_MAX   =         2.00000000                                  


 PROGRAM * CCSD (Restricted open-shell coupled cluster)     Authors: C. Hampel, H.-J. Werner, 1991, M. Deegan, P.J. Knowles, 1992


 Convergence thresholds:  THRVAR = 1.00D-08  THRDEN = 1.00D-06

 CCSD(T)     terms to be evaluated (factor= 1.000)


 Number of closed-shell orbitals:   9 (   4   2   2   1 )
 Number of active  orbitals:        1 (   1   0   0   0 )
 Number of external orbitals:     253 ( 111  57  57  28 )

 Memory could be reduced to 80.26 Mwords without degradation in triples

 Number of N-1 electron functions:              19
 Number of N-2 electron functions:             171
 Number of singly external CSFs:              1520
 Number of doubly external CSFs:           2149669
 Total number of CSFs:                     2151189

 Molecular orbitals read from record     2100.2  Type=RHF/CANONICAL (state 1.1)

 Integral transformation finished. Total CPU:   2.27 sec, npass=  1  Memory used:   6.84 MW

 Starting RMP2 calculation

 Wavefunction is spin-projected

 ITER.      SQ.NORM     CORR.ENERGY   TOTAL ENERGY   ENERGY CHANGE        DEN1      VAR(S)    VAR(P)  DIIS     TIME
   1      1.15177767    -0.78529856  -127.97300091    -0.78529856    -0.00135673  0.17D-04  0.54D-03  1  1     3.69
   2      1.15312262    -0.78674162  -127.97444397    -0.00144306    -0.00000722  0.83D-06  0.42D-05  2  2     5.14
   3      1.15322875    -0.78680072  -127.97450307    -0.00005910    -0.00000007  0.26D-07  0.35D-07  3  3     7.64
   4      1.15323319    -0.78680162  -127.97450397    -0.00000090    -0.00000000  0.49D-09  0.35D-09  4  4     9.30

 Norm of t1 vector:      0.03033012      S-energy:    -0.00232063      T1 diagnostic:  0.00075977
 Norm of t2 vector:      0.39027333      P-energy:    -0.78448099
                                         Alpha-Beta:  -0.54598165
                                         Alpha-Alpha: -0.12948448
                                         Beta-Beta:   -0.10901486

 Spin contamination <S**2-Sz**2-Sz>     0.00000000
  Reference energy                   -127.187702349814
  RHF-RMP2 correlation energy          -0.786801616259
 !RHF-RMP2 energy                    -127.974503966072
 (NB above energy spin projected)

 Starting RCCSD calculation

 ITER.      SQ.NORM     CORR.ENERGY   TOTAL ENERGY   ENERGY CHANGE        DEN1      VAR(S)    VAR(P)  DIIS     TIME
   1      1.13105364    -0.73302821  -127.92073056    -0.73302821    -0.02027625  0.56D-02  0.35D-02  1  1    13.47
   2      1.14512259    -0.75001848  -127.93772083    -0.01699027    -0.00183209  0.73D-03  0.52D-03  2  2    17.92
   3      1.15501470    -0.75208006  -127.93978241    -0.00206158    -0.00053534  0.59D-03  0.56D-04  3  3    21.40
   4      1.16515149    -0.75381263  -127.94151498    -0.00173257    -0.00018330  0.20D-03  0.23D-04  4  4    25.09
   5      1.17631991    -0.75499468  -127.94269703    -0.00118205    -0.00004659  0.48D-04  0.74D-05  5  5    28.67
   6      1.18168231    -0.75530880  -127.94301115    -0.00031412    -0.00001214  0.14D-04  0.17D-05  6  6    32.53
   7      1.18558228    -0.75554523  -127.94324758    -0.00023644    -0.00000287  0.30D-05  0.42D-06  6  2    36.45
   8      1.18598108    -0.75553512  -127.94323747     0.00001011    -0.00000050  0.41D-06  0.11D-06  6  1    40.47
   9      1.18635753    -0.75555030  -127.94325265    -0.00001518    -0.00000011  0.11D-06  0.20D-07  6  4    44.35
  10      1.18636864    -0.75554594  -127.94324829     0.00000435    -0.00000004  0.34D-07  0.57D-08  6  2    47.80
  11      1.18637112    -0.75554412  -127.94324647     0.00000183    -0.00000001  0.88D-08  0.15D-08  6  3    51.80
  12      1.18638991    -0.75554447  -127.94324682    -0.00000035    -0.00000000  0.25D-08  0.49D-09  6  5    55.31

 Norm of t1 vector:      0.20160652      S-energy:    -0.00228397      T1 diagnostic:  0.03224842
                                                                       D1 diagnostic:  0.08857030
 Norm of t2 vector:      0.38176526      P-energy:    -0.75326050
                                         Alpha-Beta:  -0.54494649
                                         Alpha-Alpha: -0.11259727
                                         Beta-Beta:   -0.09571675

 Singles amplitudes (print threshold =  0.500E-01):

         I         SYM. A    A   T(IA) [Alpha-Alpha]

         5         1         2      0.06516580
         5         1         4      0.06934009
         5         1         8      0.05198562
 
         I         SYM. A    A   T(IA) [Beta-Beta]

         3         1         1     -0.12515934

 Spin contamination <S**2-Sz**2-Sz>     0.00000000

 Memory could be reduced to 80.80 Mwords without degradation in triples
 

  Correlated core orbitals:             1.1       2.1       1.2       1.3
  Orbital energies:                    -3.9808   -2.5940   -2.5504   -2.5504
 
  RCCSD core-core energy               -0.116599928499
  RCCSD core-valence energy            -0.262790447681
  RCCSD valence correlation energy     -0.376154096850
 

 RESULTS
 =======

  Reference energy                   -127.187702349814
  RCCSD singles energy                 -0.002283970641
  RCCSD pair energy                    -0.753260502389
  RCCSD correlation energy             -0.755544473030
  Triples (T) contribution             -0.030791703389
  Total correlation energy             -0.786336176419
 
  RHF-RCCSD energy                   -127.943246822844
  RHF-RCCSD[T] energy                -127.976143482104
  RHF-RCCSD-T energy                 -127.973847459920
 !RHF-RCCSD(T) energy                -127.974038526232

 Program statistics:

 Available memory in ccsd:               511999000
 Min. memory needed in ccsd:               6371840
 Max. memory used in ccsd:                 8994336
 Max. memory used in cckext:               7244967 (12 integral passes)
 Max. memory used in cckint:               6842122 ( 1 integral passes)



 **********************************************************************************************************************************
 DATASETS  * FILE   NREC   LENGTH (MB)   RECORD NAMES
              1      19       20.87       500      610      700      900      950      970     1000      129      960     1100   
                                          VAR    BASINP    GEOM    SYMINP    ZMAT    AOBASIS   BASIS     P2S    ABASIS      S 
                                         1400     1410     1420     1200     1210     1080     1600     1650     1700   
                                           T        V       ECP      H0       H01     AOSYM     SMH    MOLCAS    OPER   

              2       4        3.40       700     1000      520     2100   
                                         GEOM     BASIS   MCVARS     RHF  

 PROGRAMS   *        TOTAL  RCCSD(T)       RHF       INT  RCCSD(T)       RHF       INT  RCCSD(T)       RHF       INT  RCCSD(T)
 CPU TIMES  *       429.65     81.97      2.18     22.27     88.65      2.40     24.90     67.59      2.37     21.69     86.95
 REAL TIME  *       644.76 SEC
 DISK USED  *         8.45 GB      
 SF USED    *         1.24 GB      
 GA USED    *         0.00 MB       (max)       0.00 MB       (current)
 **********************************************************************************************************************************
 SETTING CCSD(4)        =      -127.97403853  AU                              

 DO I                   =         5.00000000   
 SETTING Z(5)           =         1.47900000                                  

Geometry recognized as XYZ



 Recomputing integrals since geometry changed


 PROGRAM * SEWARD (Integral evaluation for generally contracted gaussian basis sets)     Author: Roland Lindh, 1990

 Geometry written to block  1 of record 700


 Point group  C2v 



 ATOMIC COORDINATES

 NR  ATOM    CHARGE       X              Y              Z

   1  PD     18.00    0.000000000    0.000000000    0.000000000
   2  H       1.00    0.000000000    0.000000000    2.794904938

 Bond lengths in Bohr (Angstrom)

 1-2  2.794904938
     ( 1.479000000)

 NUCLEAR CHARGE:                   19
 NUMBER OF PRIMITIVE AOS:         312
 NUMBER OF SYMMETRY AOS:          263
 NUMBER OF CONTRACTIONS:          263   ( 116A1  +  59B1  +  59B2  +  29A2  )
 NUMBER OF CORE ORBITALS:           4   (   2A1  +   1B1  +   1B2  +   0A2  )
 NUMBER OF VALENCE ORBITALS:        7   (   4A1  +   1B1  +   1B2  +   1A2  )


 NUCLEAR REPULSION ENERGY    6.44029060

 EXTRA SYMMETRY OF AOS IN SYMMETRY 1:   1 1 1 1 1 1 1 1 1 1   1 1 1 1 1 1 1 1 1 1   1 1 1 1 1 1 1 1 1 1   1 1 1 1 1 1 1 1 1 1
                                        1 1 1 1 1 1 1 1 1 1   1 1 1 2 1 2 1 2 1 2   1 2 1 2 1 2 1 2 1 2   1 2 1 2 1 2 1 2 1 2
                                        1 2 1 2 1 2 1 2 1 2   1 2 1 2 1 3 2 1 3 2   1 3 2 1 1 1 1 1 1 1   1 1 1 2 1 2
 EXTRA SYMMETRY OF AOS IN SYMMETRY 2:   1 1 1 1 1 1 1 1 1 1   1 1 1 1 1 1 1 1 1 1   1 1 1 1 1 1 1 1 1 1   1 1 1 1 1 1 1 1 1 1
                                        1 2 1 2 1 2 1 2 1 2   1 2 1 2 1 1 1 1 1
 EXTRA SYMMETRY OF AOS IN SYMMETRY 3:   1 1 1 1 1 1 1 1 1 1   1 1 1 1 1 1 1 1 1 1   1 1 1 1 1 1 1 1 1 1   1 1 1 1 1 1 1 1 1 1
                                        1 2 1 2 1 2 1 2 1 2   1 2 1 2 1 1 1 1 1
 EXTRA SYMMETRY OF AOS IN SYMMETRY 4:   1 1 1 1 1 1 1 1 1 1   1 1 1 1 1 1 1 1 1 1   1 1 2 1 2 1 2 1 1

 Eigenvalues of metric

         1 0.916E-06 0.191E-05 0.889E-05 0.951E-05 0.268E-04 0.117E-03 0.131E-03 0.270E-03
         2 0.982E-06 0.946E-05 0.304E-03 0.471E-03 0.163E-02 0.300E-02 0.405E-02 0.919E-02
         3 0.982E-06 0.946E-05 0.304E-03 0.471E-03 0.163E-02 0.300E-02 0.405E-02 0.919E-02
         4 0.951E-05 0.307E-03 0.302E-02 0.107E-01 0.286E-01 0.528E-01 0.849E-01 0.105E+00


 Contracted 2-electron integrals neglected if value below      1.0D-13
 AO integral compression algorithm  1   Integral accuracy      1.0D-13

     597.164 MB (compressed) written to integral file ( 43.5%)

     Node minimum: 5.505 MB, node maximum: 63.701 MB


 NUMBER OF SORTED TWO-ELECTRON INTEGRALS:    6738189.     BUFFER LENGTH:  32768
 NUMBER OF SEGMENTS:   1  SEGMENT LENGTH:    6738189      RECORD LENGTH: 524288

 Memory used in sort:       7.30 MW

 SORT1 READ   171363336. AND WROTE     2886144. INTEGRALS IN      9 RECORDS. CPU TIME:     4.15 SEC, REAL TIME:     4.26 SEC
 SORT2 READ    67747600. AND WROTE   156329493. INTEGRALS IN   1610 RECORDS. CPU TIME:     0.55 SEC, REAL TIME:     0.78 SEC

 Node minimum:     6738189.  Node maximum:     6815662. integrals

 OPERATOR DM      FOR CENTER  0  COORDINATES:    0.000000    0.000000    0.000000


 **********************************************************************************************************************************
 DATASETS  * FILE   NREC   LENGTH (MB)   RECORD NAMES
              1      19       20.83       500      610      700      900      950      970     1000      129      960     1100   
                                          VAR    BASINP    GEOM    SYMINP    ZMAT    AOBASIS   BASIS     P2S    ABASIS      S 
                                         1400     1410     1420     1200     1210     1080     1600     1650     1700   
                                           T        V       ECP      H0       H01     AOSYM     SMH    MOLCAS    OPER   

              2       4        3.40       700     1000      520     2100   
                                         GEOM     BASIS   MCVARS     RHF  

 PROGRAMS   *        TOTAL       INT  RCCSD(T)       RHF       INT  RCCSD(T)       RHF       INT  RCCSD(T)       RHF       INT
 CPU TIMES  *       451.56     21.90     81.97      2.18     22.27     88.65      2.40     24.90     67.59      2.37     21.69
 REAL TIME  *       667.25 SEC
 DISK USED  *         8.52 GB      
 SF USED    *         1.24 GB      
 GA USED    *         0.00 MB       (max)       0.00 MB       (current)
 **********************************************************************************************************************************


 PROGRAM * RHF-SCF (OPEN SHELL)       Authors: W. Meyer, H.-J. Werner


 NUMBER OF ELECTRONS:      10+    9-    SPACE SYMMETRY=1    SPIN SYMMETRY: Doublet 
 CONVERGENCE THRESHOLDS:    1.00E-05 (Density)    1.00E-07 (Energy)
 MAX. NUMBER OF ITERATIONS:       60
 INTERPOLATION TYPE:            DIIS
 INTERPOLATION STEPS:              2 (START)      1 (STEP)
 LEVEL SHIFTS:                 -0.60 (CLOSED) -0.30 (OPEN) 

 Number of closed-shell orbitals:    9 (   4   2   2   1 )
 Number of open-shell orbitals:      1 (   1   0   0   0 )


 Molecular orbitals read from record     2100.2  Type=RHF/CANONICAL (state 1.1)

 Molecular orbital dump at record        2100.2

 ITERATION    DDIFF          GRAD             ENERGY        2-EL.EN.            DIPOLE MOMENTS         DIIS   ORB.
    1      0.000D+00      0.000D+00      -127.18402134    211.517612    0.00000    0.00000   -1.30915    0    start
    2      0.000D+00      0.275D-02      -127.18440984    211.533254    0.00000    0.00000   -1.31449    1    diag,B
    3      0.396D-03      0.171D-03      -127.18449179    211.547487    0.00000    0.00000   -1.30612    2    diag,B
    4      0.619D-04      0.102D-03      -127.18456306    211.562340    0.00000    0.00000   -1.29677    3    diag,B
    5      0.676D-04      0.708D-04      -127.18462869    211.581728    0.00000    0.00000   -1.28215    4    diag,B
    6      0.820D-04      0.478D-04      -127.18467287    211.603428    0.00000    0.00000   -1.26411    5    diag,B
    7      0.985D-04      0.195D-04      -127.18467841    211.612289    0.00000    0.00000   -1.25766    6    diag,B
    8      0.322D-04      0.755D-05      -127.18467876    211.612838    0.00000    0.00000   -1.25680    7    orth
    9      0.951D-05      0.358D-05      -127.18467882    211.613564    0.00000    0.00000   -1.25706    8    diag,B
   10      0.615D-05      0.176D-05      -127.18467882    211.613539    0.00000    0.00000   -1.25712    0    orth

 Final alpha occupancy:   5   2   2   1
 Final beta  occupancy:   4   2   2   1

 !RHF STATE 1.1 Energy               -127.184678824507
 Nuclear energy                         6.44029060
 One-electron energy                 -239.43173916
 Two-electron energy                  105.80676974
 Virial quotient                       -2.60654127
 !RHF STATE 1.1 Dipole moment           0.00000000     0.00000000    -1.25712284
 Dipole moment /Debye                   0.00000000     0.00000000    -3.19507827

 Orbital energies:

[...]
  RCCSD singles energy                 -0.001234567546
  RCCSD pair energy                    -0.764563363570
  RCCSD correlation energy             -0.765797931116
  Triples (T) contribution             -0.031655735816
  Total correlation energy             -0.797453666933
 
  RHF-RCCSD energy                   -127.901062269215
  RHF-RCCSD[T] energy                -127.933911991174
  RHF-RCCSD-T energy                 -127.932536632934
 !RHF-RCCSD(T) energy                -127.932718005032

 Program statistics:

 Available memory in ccsd:               511999000
 Min. memory needed in ccsd:               6371840
 Max. memory used in ccsd:                 8994336
 Max. memory used in cckext:               7244967 (12 integral passes)
 Max. memory used in cckint:               6842122 ( 1 integral passes)



 **********************************************************************************************************************************
 DATASETS  * FILE   NREC   LENGTH (MB)   RECORD NAMES
              1      19       20.87       500      610      700      900      950      970     1000      129      960     1100   
                                          VAR    BASINP    GEOM    SYMINP    ZMAT    AOBASIS   BASIS     P2S    ABASIS      S 
                                         1400     1410     1420     1200     1210     1080     1600     1650     1700   
                                           T        V       ECP      H0       H01     AOSYM     SMH    MOLCAS    OPER   

              2       4        3.40       700     1000      520     2100   
                                         GEOM     BASIS   MCVARS     RHF  

 PROGRAMS   *        TOTAL  RCCSD(T)       RHF       INT  RCCSD(T)       RHF       INT  RCCSD(T)       RHF       INT  RCCSD(T)
 CPU TIMES  *      1028.75     67.52      2.89     23.00     64.65      2.45     23.41     77.52      2.58     23.25     86.65
 REAL TIME  *      1589.09 SEC
 DISK USED  *         8.67 GB      
 SF USED    *         1.24 GB      
 GA USED    *         0.00 MB       (max)       0.00 MB       (current)
 **********************************************************************************************************************************
 SETTING CCSD(10)       =      -127.93271801  AU                              

 DO I                   =        11.00000000   
 SETTING Z(11)          =         1.17900000                                  

Geometry recognized as XYZ



 Recomputing integrals since geometry changed


 PROGRAM * SEWARD (Integral evaluation for generally contracted gaussian basis sets)     Author: Roland Lindh, 1990

 Geometry written to block  1 of record 700


 Point group  C2v 



 ATOMIC COORDINATES

 NR  ATOM    CHARGE       X              Y              Z

   1  PD     18.00    0.000000000    0.000000000    0.000000000
   2  H       1.00    0.000000000    0.000000000    2.227987101

 Bond lengths in Bohr (Angstrom)

 1-2  2.227987101
     ( 1.179000000)

 NUCLEAR CHARGE:                   19
 NUMBER OF PRIMITIVE AOS:         312
 NUMBER OF SYMMETRY AOS:          263
 NUMBER OF CONTRACTIONS:          263   ( 116A1  +  59B1  +  59B2  +  29A2  )
 NUMBER OF CORE ORBITALS:           4   (   2A1  +   1B1  +   1B2  +   0A2  )
 NUMBER OF VALENCE ORBITALS:        7   (   4A1  +   1B1  +   1B2  +   1A2  )


 NUCLEAR REPULSION ENERGY    8.07904139

 EXTRA SYMMETRY OF AOS IN SYMMETRY 1:   1 1 1 1 1 1 1 1 1 1   1 1 1 1 1 1 1 1 1 1   1 1 1 1 1 1 1 1 1 1   1 1 1 1 1 1 1 1 1 1
                                        1 1 1 1 1 1 1 1 1 1   1 1 1 2 1 2 1 2 1 2   1 2 1 2 1 2 1 2 1 2   1 2 1 2 1 2 1 2 1 2
                                        1 2 1 2 1 2 1 2 1 2   1 2 1 2 1 3 2 1 3 2   1 3 2 1 1 1 1 1 1 1   1 1 1 2 1 2
 EXTRA SYMMETRY OF AOS IN SYMMETRY 2:   1 1 1 1 1 1 1 1 1 1   1 1 1 1 1 1 1 1 1 1   1 1 1 1 1 1 1 1 1 1   1 1 1 1 1 1 1 1 1 1
                                        1 2 1 2 1 2 1 2 1 2   1 2 1 2 1 1 1 1 1
 EXTRA SYMMETRY OF AOS IN SYMMETRY 3:   1 1 1 1 1 1 1 1 1 1   1 1 1 1 1 1 1 1 1 1   1 1 1 1 1 1 1 1 1 1   1 1 1 1 1 1 1 1 1 1
                                        1 2 1 2 1 2 1 2 1 2   1 2 1 2 1 1 1 1 1
 EXTRA SYMMETRY OF AOS IN SYMMETRY 4:   1 1 1 1 1 1 1 1 1 1   1 1 1 1 1 1 1 1 1 1   1 1 2 1 2 1 2 1 1

 Eigenvalues of metric

         1 0.886E-06 0.182E-05 0.886E-05 0.951E-05 0.234E-04 0.397E-04 0.111E-03 0.199E-03
         2 0.982E-06 0.929E-05 0.296E-03 0.471E-03 0.163E-02 0.296E-02 0.406E-02 0.579E-02
         3 0.982E-06 0.929E-05 0.296E-03 0.471E-03 0.163E-02 0.296E-02 0.406E-02 0.579E-02
         4 0.951E-05 0.307E-03 0.302E-02 0.107E-01 0.284E-01 0.514E-01 0.758E-01 0.104E+00


 Contracted 2-electron integrals neglected if value below      1.0D-13
 AO integral compression algorithm  1   Integral accuracy      1.0D-13

     612.368 MB (compressed) written to integral file ( 44.6%)

     Node minimum: 2.621 MB, node maximum: 63.701 MB


 NUMBER OF SORTED TWO-ELECTRON INTEGRALS:    6738189.     BUFFER LENGTH:  32768
 NUMBER OF SEGMENTS:   1  SEGMENT LENGTH:    6738189      RECORD LENGTH: 524288

 Memory used in sort:       7.30 MW

 SORT1 READ   171363336. AND WROTE     2931039. INTEGRALS IN      9 RECORDS. CPU TIME:     5.51 SEC, REAL TIME:     5.66 SEC
 SORT2 READ    68795683. AND WROTE   156329493. INTEGRALS IN   1909 RECORDS. CPU TIME:     0.80 SEC, REAL TIME:     1.05 SEC

 Node minimum:     6738189.  Node maximum:     6815662. integrals

 OPERATOR DM      FOR CENTER  0  COORDINATES:    0.000000    0.000000    0.000000


 **********************************************************************************************************************************
 DATASETS  * FILE   NREC   LENGTH (MB)   RECORD NAMES
              1      19       20.83       500      610      700      900      950      970     1000      129      960     1100   
                                          VAR    BASINP    GEOM    SYMINP    ZMAT    AOBASIS   BASIS     P2S    ABASIS      S 
                                         1400     1410     1420     1200     1210     1080     1600     1650     1700   
                                           T        V       ECP      H0       H01     AOSYM     SMH    MOLCAS    OPER   

              2       4        3.40       700     1000      520     2100   
                                         GEOM     BASIS   MCVARS     RHF  

 PROGRAMS   *        TOTAL       INT  RCCSD(T)       RHF       INT  RCCSD(T)       RHF       INT  RCCSD(T)       RHF       INT
 CPU TIMES  *      1051.63     22.87     67.52      2.89     23.00     64.65      2.45     23.41     77.52      2.58     23.25
 REAL TIME  *      1612.96 SEC
 DISK USED  *         8.68 GB      
 SF USED    *         1.24 GB      
 GA USED    *         0.00 MB       (max)       0.00 MB       (current)
 **********************************************************************************************************************************


 PROGRAM * RHF-SCF (OPEN SHELL)       Authors: W. Meyer, H.-J. Werner


 NUMBER OF ELECTRONS:      10+    9-    SPACE SYMMETRY=1    SPIN SYMMETRY: Doublet 
 CONVERGENCE THRESHOLDS:    1.00E-05 (Density)    1.00E-07 (Energy)
 MAX. NUMBER OF ITERATIONS:       60
 INTERPOLATION TYPE:            DIIS
 INTERPOLATION STEPS:              2 (START)      1 (STEP)
 LEVEL SHIFTS:                 -0.60 (CLOSED) -0.30 (OPEN) 

 Number of closed-shell orbitals:    9 (   4   2   2   1 )
 Number of open-shell orbitals:      1 (   1   0   0   0 )


 Molecular orbitals read from record     2100.2  Type=RHF/CANONICAL (state 1.1)

 Molecular orbital dump at record        2100.2

 ITERATION    DDIFF          GRAD             ENERGY        2-EL.EN.            DIPOLE MOMENTS         DIIS   ORB.
    1      0.000D+00      0.000D+00      -127.11181417    214.421396    0.00000    0.00000   -0.84621    0    start
    2      0.000D+00      0.538D-02      -127.11310304    214.428989    0.00000    0.00000   -0.86346    1    diag,B
    3      0.981D-03      0.313D-03      -127.11327753    214.436537    0.00000    0.00000   -0.85098    2    diag,B
    4      0.244D-03      0.154D-03      -127.11338228    214.433779    0.00000    0.00000   -0.84342    3    diag,B
    5      0.151D-03      0.870D-04      -127.11344973    214.434730    0.00000    0.00000   -0.83160    4    diag,B
    6      0.139D-03      0.522D-04      -127.11348212    214.427128    0.00000    0.00000   -0.82133    5    diag,B
    7      0.117D-03      0.220D-04      -127.11348748    214.426238    0.00000    0.00000   -0.81669    6    diag,B
    8      0.302D-04      0.106D-04      -127.11348852    214.422455    0.00000    0.00000   -0.81463    7    orth
    9      0.152D-04      0.591D-05      -127.11348888    214.421359    0.00000    0.00000   -0.81349    8    diag,B
   10      0.106D-04      0.350D-05      -127.11348908    214.420065    0.00000    0.00000   -0.81247    9    diag,B
   11      0.788D-05      0.195D-05      -127.11348915    214.419095    0.00000    0.00000   -0.81166    9    diag,B
   12      0.766D-05      0.853D-06      -127.11348916    214.418979    0.00000    0.00000   -0.81159    0    orth

 Final alpha occupancy:   5   2   2   1
 Final beta  occupancy:   4   2   2   1

 !RHF STATE 1.1 Energy               -127.113489155667
 Nuclear energy                         8.07904139
 One-electron energy                 -242.40202007
 Two-electron energy                  107.20948952
 Virial quotient                       -2.58729349
 !RHF STATE 1.1 Dipole moment           0.00000000     0.00000000    -0.81159487
 Dipole moment /Debye                   0.00000000     0.00000000    -2.06273330

 Orbital energies:

         1.1          2.1          3.1          4.1          5.1          6.1          7.1
     -3.954321    -2.561894    -0.561944    -0.412657    -0.276755     0.013769     0.026432

         1.2          2.2          3.2          4.2
     -2.526712    -0.448108     0.023392     0.077133

         1.3          2.3          3.3          4.3
     -2.526712    -0.448108     0.023392     0.077133

         1.4          2.4          3.4
     -0.412657     0.098988     0.328106

 HOMO      5.1    -0.276755 =      -7.5309eV
 LUMO      6.1     0.013769 =       0.3747eV
 LUMO-HOMO         0.290525 =       7.9056eV


 **********************************************************************************************************************************
 DATASETS  * FILE   NREC   LENGTH (MB)   RECORD NAMES
              1      19       20.87       500      610      700      900      950      970     1000      129      960     1100   
                                          VAR    BASINP    GEOM    SYMINP    ZMAT    AOBASIS   BASIS     P2S    ABASIS      S 
                                         1400     1410     1420     1200     1210     1080     1600     1650     1700   
                                           T        V       ECP      H0       H01     AOSYM     SMH    MOLCAS    OPER   

              2       4        3.40       700     1000      520     2100   
                                         GEOM     BASIS   MCVARS     RHF  

 PROGRAMS   *        TOTAL       RHF       INT  RCCSD(T)       RHF       INT  RCCSD(T)       RHF       INT  RCCSD(T)       RHF
 CPU TIMES  *      1054.22      2.59     22.87     67.52      2.89     23.00     64.65      2.45     23.41     77.52      2.58
 REAL TIME  *      1615.97 SEC
 DISK USED  *         8.68 GB      
 SF USED    *         1.24 GB      
 GA USED    *         0.00 MB       (max)       0.00 MB       (current)
 **********************************************************************************************************************************
 SETTING SCF(11)        =      -127.11348916  AU                              
 SETTING _CC_NORM_MAX   =         2.00000000                                  


 PROGRAM * CCSD (Restricted open-shell coupled cluster)     Authors: C. Hampel, H.-J. Werner, 1991, M. Deegan, P.J. Knowles, 1992


 Convergence thresholds:  THRVAR = 1.00D-08  THRDEN = 1.00D-06

 CCSD(T)     terms to be evaluated (factor= 1.000)


 Number of closed-shell orbitals:   9 (   4   2   2   1 )
 Number of active  orbitals:        1 (   1   0   0   0 )
 Number of external orbitals:     253 ( 111  57  57  28 )

 Memory could be reduced to 80.26 Mwords without degradation in triples

 Number of N-1 electron functions:              19
 Number of N-2 electron functions:             171
 Number of singly external CSFs:              1520
 Number of doubly external CSFs:           2149669
 Total number of CSFs:                     2151189

 Molecular orbitals read from record     2100.2  Type=RHF/CANONICAL (state 1.1)

 Integral transformation finished. Total CPU:   2.11 sec, npass=  1  Memory used:   6.84 MW

 Starting RMP2 calculation

 Wavefunction is spin-projected

 ITER.      SQ.NORM     CORR.ENERGY   TOTAL ENERGY   ENERGY CHANGE        DEN1      VAR(S)    VAR(P)  DIIS     TIME
   1      1.15638449    -0.80924649  -127.92273564    -0.80924649    -0.00130033  0.73D-05  0.48D-03  1  1     2.72
   2      1.15751922    -0.81061577  -127.92410493    -0.00136928    -0.00000296  0.14D-06  0.18D-05  2  2     3.42
   3      1.15757548    -0.81065024  -127.92413939    -0.00003447    -0.00000001  0.40D-08  0.65D-08  3  3     3.84
   4      1.15757685    -0.81065047  -127.92413963    -0.00000023    -0.00000000  0.12D-09  0.24D-10  4  4     4.46

 Norm of t1 vector:      0.02387784      S-energy:    -0.00111100      T1 diagnostic:  0.00024970
 Norm of t2 vector:      0.39624070      P-energy:    -0.80953947
                                         Alpha-Beta:  -0.55938847
                                         Alpha-Alpha: -0.13497912
                                         Beta-Beta:   -0.11517187

 Spin contamination <S**2-Sz**2-Sz>     0.00000000
  Reference energy                   -127.113489155668
  RHF-RMP2 correlation energy          -0.810650469759
 !RHF-RMP2 energy                    -127.924139625427
 (NB above energy spin projected)

 Starting RCCSD calculation

 ITER.      SQ.NORM     CORR.ENERGY   TOTAL ENERGY   ENERGY CHANGE        DEN1      VAR(S)    VAR(P)  DIIS     TIME
   1      1.12771821    -0.74743624  -127.86092540    -0.74743624    -0.01965329  0.31D-02  0.36D-02  1  1     6.93
   2      1.13840175    -0.76422138  -127.87771054    -0.01678514    -0.00116035  0.29D-03  0.34D-03  2  2     9.49
   3      1.14210060    -0.76513520  -127.87862436    -0.00091382    -0.00020950  0.20D-03  0.27D-04  3  3    11.89
   4      1.14482528    -0.76583901  -127.87932817    -0.00070381    -0.00005343  0.58D-04  0.67D-05  4  4    14.45
   5      1.14726037    -0.76623810  -127.87972725    -0.00039908    -0.00001098  0.15D-04  0.11D-05  5  5    16.75
   6      1.14835249    -0.76631630  -127.87980545    -0.00007820    -0.00000283  0.42D-05  0.23D-06  6  6    19.58
   7      1.14901327    -0.76635677  -127.87984593    -0.00004047    -0.00000065  0.78D-06  0.75D-07  6  2    22.47
   8      1.14920245    -0.76635755  -127.87984670    -0.00000077    -0.00000010  0.86D-07  0.18D-07  6  1    24.89
   9      1.14926318    -0.76635641  -127.87984557     0.00000114    -0.00000001  0.75D-08  0.28D-08  6  4    27.27
  10      1.14927795    -0.76635868  -127.87984784    -0.00000227    -0.00000000  0.18D-08  0.33D-09  6  3    29.43
  11      1.14927800    -0.76635820  -127.87984735     0.00000049    -0.00000000  0.41D-09  0.90D-10  6  5    32.34

 Norm of t1 vector:      0.11008410      S-energy:    -0.00111127      T1 diagnostic:  0.01739449
                                                                       D1 diagnostic:  0.05680573
 Norm of t2 vector:      0.37035050      P-energy:    -0.76524693
                                         Alpha-Beta:  -0.55047830
                                         Alpha-Alpha: -0.11593038
                                         Beta-Beta:   -0.09883824

 Spin contamination <S**2-Sz**2-Sz>     0.00000000

 Memory could be reduced to 80.80 Mwords without degradation in triples
 

  Correlated core orbitals:             1.1       2.1       1.2       1.3
  Orbital energies:                    -3.9670   -2.5851   -2.5344   -2.5344
 
  RCCSD core-core energy               -0.114083034820
  RCCSD core-valence energy            -0.263148389514
  RCCSD valence correlation energy     -0.389126772722
 

 RESULTS
 =======

  Reference energy                   -127.113489155668
  RCCSD singles energy                 -0.001111268950
  RCCSD pair energy                    -0.765246928107
  RCCSD correlation energy             -0.766358197056
  Triples (T) contribution             -0.031577591720
  Total correlation energy             -0.797935788776
 
  RHF-RCCSD energy                   -127.879847352724
  RHF-RCCSD[T] energy                -127.912514018188
  RHF-RCCSD-T energy                 -127.911245961435
 !RHF-RCCSD(T) energy                -127.911424944444

 Program statistics:

 Available memory in ccsd:               511999000
 Min. memory needed in ccsd:               6371840
 Max. memory used in ccsd:                 8994336
 Max. memory used in cckext:               7244967 (11 integral passes)
 Max. memory used in cckint:               6842122 ( 1 integral passes)



 **********************************************************************************************************************************
 DATASETS  * FILE   NREC   LENGTH (MB)   RECORD NAMES
              1      19       20.87       500      610      700      900      950      970     1000      129      960     1100   
                                          VAR    BASINP    GEOM    SYMINP    ZMAT    AOBASIS   BASIS     P2S    ABASIS      S 
                                         1400     1410     1420     1200     1210     1080     1600     1650     1700   
                                           T        V       ECP      H0       H01     AOSYM     SMH    MOLCAS    OPER   

              2       4        3.40       700     1000      520     2100   
                                         GEOM     BASIS   MCVARS     RHF  

 PROGRAMS   *        TOTAL  RCCSD(T)       RHF       INT  RCCSD(T)       RHF       INT  RCCSD(T)       RHF       INT  RCCSD(T)
 CPU TIMES  *      1113.74     59.46      2.59     22.87     67.52      2.89     23.00     64.65      2.45     23.41     77.52
 REAL TIME  *      1761.26 SEC
 DISK USED  *         8.68 GB      
 SF USED    *         1.24 GB      
 GA USED    *         0.00 MB       (max)       0.00 MB       (current)
 **********************************************************************************************************************************
 SETTING CCSD(11)       =      -127.91142494  AU                              
 Output type csv         
                                                                                                                                                                                                                                                                

     Z,SCF,CCSD
   1.679,   -127.1897027,   -127.9682587
   1.629,   -127.1900087,   -127.9711026
   1.579,   -127.1894028,   -127.9731142
   1.529,   -127.1877023,   -127.9740385
   1.479,   -127.1846788,   -127.9735647
   1.429,   -127.1800362,   -127.9712952
   1.379,   -127.1733817,   -127.9667470
   1.329,   -127.1641931,   -127.9593263
   1.279,   -127.1517840,   -127.9482933
   1.229,   -127.1352643,   -127.9327180
   1.179,   -127.1134892,   -127.9114249
                                                  

 RCCSD(T)/USERDEF energy=   -127.911424944444

        RCCSD(T)        RHF-SCF         RCCSD(T)        RHF-SCF         RCCSD(T)        RHF-SCF         RCCSD(T)        RHF-SCF 
   -127.91142494   -127.11348916   -127.93271801   -127.13526434   -127.94829326   -127.15178403   -127.95932634   -127.16419310
 **********************************************************************************************************************************
 Molpro calculation terminated
 Variable memory released
