<?xml version="1.0"?>
<molpro xmlns="http://www.molpro.net/schema/molpro-output"
  xmlns:xsd="http://www.w3.org/1999/XMLSchema"
  xmlns:cml="http://www.xml-cml.org/schema"
  xmlns:stm="http://www.xml-cml.org/schema"
  xmlns:xhtml="http://www.w3.org/1999/xhtml">
 <!--

 Nodes     nprocs
 nid02297    11
 Number of processes for MPI-2 version of Molpro:   nprocs(total)=   12   nprocs(compute)=   11   nprocs(helper)=    1

 Using customized tuning parameters: mindgm=7; mindgv=16; mindgc=1; mindgr=1; noblas=0; minvec=7
 default implementation of scratch files=sf

 --><job>
  <!--

 Variables initialized (889), CPU time= 0.02 sec
 Commands  initialized (702), CPU time= 0.01 sec, 572 directives.
 Default parameters read. Elapsed time= 0.17 sec

 Checking input...
 Passed
1


                                         ***  PROGRAM SYSTEM MOLPRO  ***
                                       Copyright, TTI GmbH Stuttgart, 2015
                                    Version 2015.1 linked Dec 29 2018 15:55:43


 **********************************************************************************************************************************
 LABEL *   Calculation for Ir groundstate
  64 bit mpp version                                                                     DATE: 25-Jun-21          TIME: 19:19:29
 **********************************************************************************************************************************

 SHA1:             19cd028119e0e09f93f0674bd8af7968d9b3eff6
 **********************************************************************************************************************************
  -->
  <!--

 THRESHOLDS:

 ZERO    =  1.00D-12  ONEINT  =  1.00D-12  TWOINT  =  1.00D-15  PREFAC  =  1.00D-14  LOCALI  =  1.00D-09  EORDER  =  1.00D-04
 ENERGY  =  0.00D+00  ETEST   =  0.00D+00  EDENS   =  0.00D+00  THRDEDEF=  1.00D-06  GRADIENT=  1.00D-02  STEP    =  1.00D-03
 ORBITAL =  1.00D-05  CIVEC   =  1.00D-05  COEFF   =  1.00D-04  PRINTCI =  5.00D-02  PUNCHCI =  9.90D+01  OPTGRAD =  3.00D-04
 OPTENERG=  1.00D-06  OPTSTEP =  3.00D-04  THRGRAD =  1.00D-10  COMPRESS=  1.00D-11  VARMIN  =  1.00D-07  VARMAX  =  1.00D-03
 THRDOUB =  0.00D+00  THRDIV  =  1.00D-05  THRRED  =  1.00D-07  THRPSP  =  1.00D+00  THRDC   =  1.00D-10  THRCS   =  1.00D-10
 THRNRM  =  1.00D-08  THREQ   =  0.00D+00  THRDE   =  1.00D+00  THRREF  =  1.00D-05  SPARFAC =  1.00D+00  THRDLP  =  1.00D-07
 THRDIA  =  1.00D-10  THRDLS  =  1.00D-07  THRGPS  =  0.00D+00  THRKEX  =  0.00D+00  THRDIS  =  2.00D-01  THRVAR  =  1.00D-10
 THRLOC  =  1.00D-06  THRGAP  =  1.00D-06  THRLOCT = -1.00D+00  THRGAPT = -1.00D+00  THRORB  =  1.00D-06  THRMLTP =  0.00D+00
 THRCPQCI=  1.00D-10  KEXTA   =  0.00D+00  THRCOARS=  0.00D+00  SYMTOL  =  1.00D-06  GRADTOL =  1.00D-06  THROVL  =  1.00D-08
 THRORTH =  1.00D-08  GRID    =  1.00D-06  GRIDMAX =  1.00D-03  DTMAX   =  0.00D+00  THROCCDE=  1.00D-01  THROCCDE=  1.00D-01



 THRESHOLDS:

 ZERO    =  1.00D-12  ONEINT  =  1.00D-12  TWOINT  =  1.00D-15  PREFAC  =  1.00D-14  LOCALI  =  1.00D-09  EORDER  =  1.00D-04
 ENERGY  =  0.00D+00  ETEST   =  0.00D+00  EDENS   =  0.00D+00  THRDEDEF=  1.00D-06  GRADIENT=  1.00D-02  STEP    =  1.00D-03
 ORBITAL =  1.00D-05  CIVEC   =  1.00D-05  COEFF   =  1.00D-04  PRINTCI =  5.00D-02  PUNCHCI =  9.90D+01  OPTGRAD =  3.00D-04
 OPTENERG=  1.00D-06  OPTSTEP =  3.00D-04  THRGRAD =  1.00D-10  COMPRESS=  1.00D-11  VARMIN  =  1.00D-07  VARMAX  =  1.00D-03
 THRDOUB =  0.00D+00  THRDIV  =  1.00D-05  THRRED  =  1.00D-07  THRPSP  =  1.00D+00  THRDC   =  1.00D-10  THRCS   =  1.00D-10
 THRNRM  =  1.00D-08  THREQ   =  0.00D+00  THRDE   =  1.00D+00  THRREF  =  1.00D-05  SPARFAC =  1.00D+00  THRDLP  =  1.00D-07
 THRDIA  =  1.00D-10  THRDLS  =  1.00D-07  THRGPS  =  0.00D+00  THRKEX  =  0.00D+00  THRDIS  =  2.00D-01  THRVAR  =  1.00D-10
 THRLOC  =  1.00D-06  THRGAP  =  1.00D-06  THRLOCT = -1.00D+00  THRGAPT = -1.00D+00  THRORB  =  1.00D-06  THRMLTP =  0.00D+00
 THRCPQCI=  1.00D-10  KEXTA   =  0.00D+00  THRCOARS=  0.00D+00  SYMTOL  =  1.00D-06  GRADTOL =  1.00D-06  THROVL  =  1.00D-15
 THRORTH =  1.00D-08  GRID    =  1.00D-06  GRIDMAX =  1.00D-03  DTMAX   =  0.00D+00  THROCCDE=  1.00D-01  THROCCDE=  1.00D-01



 Variable memory set to 1024000000 words,  buffer space   230000 words

 SETTING BASIS          =    USERDEF

Geometry recognized as XYZ


 DO I                   =         8.00000000

 Running procedure=IIID5S1P1
  --><jobstep command="RHF-SCF" commandset="SCFPRO">
   <!--


 Recomputing integrals since basis changed


 Using spherical harmonics



 PROGRAM * SEWARD (Integral evaluation for generally contracted gaussian basis sets)     Author: Roland Lindh, 1990

 Geometry written to block  1 of record 700

 Orientation using atomic masses
 Molecule type: Atom
 Symmetry elements: X,Y,Z
 Rotational constants:       0.0000000      0.0000000      0.0000000 GHz  (calculated with average atomic masses)

 Point group  D2h


   --><cml:molecule>
    <cml:symmetry pointGroup="D2h"/>
    <cml:atomArray>
     <cml:atom id="a1" elementType="Ir" x3="0.0" y3="0.0" z3="0.0"/>
    </cml:atomArray>
    <cml:bondArray>
    </cml:bondArray>
   </cml:molecule><!--

 ATOMIC COORDINATES

 NR  ATOM    CHARGE       X              Y              Z

   1  IR     17.00    0.000000000    0.000000000    0.000000000

 NUCLEAR CHARGE:                   17
 NUMBER OF PRIMITIVE AOS:         460
 NUMBER OF SYMMETRY AOS:          375
 NUMBER OF CONTRACTIONS:          375   (  90Ag  +  62B3u +  62B2u +  28B1g +  62B1u +  28B2g +  28B3g +  15Au  )
 NUMBER OF CORE ORBITALS:           4   (   1Ag  +   1B3u +   1B2u +   0B1g +   1B1u +   0B2g +   0B3g +   0Au  )
 NUMBER OF VALENCE ORBITALS:        6   (   3Ag  +   0B3u +   0B2u +   1B1g +   0B1u +   1B2g +   1B3g +   0Au  )


 NUCLEAR REPULSION ENERGY    0.00000000

 EXTRA SYMMETRY OF AOS IN SYMMETRY 1:   1 1 1 1 1 1 1 1 1 1   1 1 1 1 1 1 1 1 1 1   1 1 1 1 1 1 1 1 1 1   1 1 1 1 1 1 1 2 3 2
                                        3 2 3 2 3 2 3 2 3 2   3 2 3 2 3 2 3 2 3 2   3 2 3 2 3 2 3 2 3 2   3 2 3 2 3 2 3 2 3 2
                                        3 4 5 6 4 5 6 4 5 6
 EXTRA SYMMETRY OF AOS IN SYMMETRY 2:   1 1 1 1 1 1 1 1 1 1   1 1 1 1 1 1 1 1 1 1   1 1 1 1 1 1 1 1 1 1   1 1 2 3 2 3 2 3 2 3
                                        2 3 2 3 2 3 2 3 2 3   2 3 2 3 2 3 2 3 2 3   2 3
 EXTRA SYMMETRY OF AOS IN SYMMETRY 3:   1 1 1 1 1 1 1 1 1 1   1 1 1 1 1 1 1 1 1 1   1 1 1 1 1 1 1 1 1 1   1 1 2 3 2 3 2 3 2 3
                                        2 3 2 3 2 3 2 3 2 3   2 3 2 3 2 3 2 3 2 3   2 3
 EXTRA SYMMETRY OF AOS IN SYMMETRY 4:   1 1 1 1 1 1 1 1 1 1   1 1 1 1 1 1 1 1 1 1   1 1 2 3 2 3 2 3
 EXTRA SYMMETRY OF AOS IN SYMMETRY 5:   1 1 1 1 1 1 1 1 1 1   1 1 1 1 1 1 1 1 1 1   1 1 1 1 1 1 1 1 1 1   1 1 2 3 2 3 2 3 2 3
                                        2 3 2 3 2 3 2 3 2 3   2 3 2 3 2 3 2 3 2 3   2 3
 EXTRA SYMMETRY OF AOS IN SYMMETRY 6:   1 1 1 1 1 1 1 1 1 1   1 1 1 1 1 1 1 1 1 1   1 1 2 3 2 3 2 3
 EXTRA SYMMETRY OF AOS IN SYMMETRY 7:   1 1 1 1 1 1 1 1 1 1   1 1 1 1 1 1 1 1 1 1   1 1 2 3 2 3 2 3

 Eigenvalues of metric

         1 0.363E-06 0.805E-06 0.805E-06 0.149E-05 0.510E-05 0.203E-04 0.268E-04 0.268E-04
         2 0.172E-06 0.514E-05 0.116E-04 0.547E-04 0.547E-04 0.564E-04 0.176E-03 0.520E-03
         3 0.172E-06 0.514E-05 0.116E-04 0.547E-04 0.547E-04 0.564E-04 0.176E-03 0.520E-03
         4 0.805E-06 0.268E-04 0.166E-03 0.629E-03 0.214E-02 0.643E-02 0.130E-01 0.130E-01
         5 0.172E-06 0.514E-05 0.116E-04 0.547E-04 0.547E-04 0.564E-04 0.176E-03 0.520E-03
         6 0.805E-06 0.268E-04 0.166E-03 0.629E-03 0.214E-02 0.643E-02 0.130E-01 0.130E-01
         7 0.805E-06 0.268E-04 0.166E-03 0.629E-03 0.214E-02 0.643E-02 0.130E-01 0.130E-01
         8 0.547E-04 0.993E-03 0.560E-02 0.134E-01 0.354E-01 0.839E-01 0.163E+00 0.306E+00


 Contracted 2-electron integrals neglected if value below      1.0D-15

 Warning: maximum contribution to expansion of semi-local PP integrals   0.3D+07

 AO integral compression algorithm  1   Integral accuracy      1.0D-15

     2626.421 MB (compressed) written to integral file ( 50.1%)

     Node minimum: 111.935 MB, node maximum: 369.361 MB


 NUMBER OF SORTED TWO-ELECTRON INTEGRALS:   29240942.     BUFFER LENGTH:  32768
 NUMBER OF SEGMENTS:   1  SEGMENT LENGTH:   29240942      RECORD LENGTH: 524288

 Memory used in sort:      29.80 MW

 SORT1 READ   655738417. AND WROTE    18719092. INTEGRALS IN     54 RECORDS. CPU TIME:    14.95 SEC, REAL TIME:    16.78 SEC
 SORT2 READ   205938056. AND WROTE   321160446. INTEGRALS IN  10230 RECORDS. CPU TIME:     0.47 SEC, REAL TIME:     2.09 SEC

 Node minimum:    29101769.  Node maximum:    29307080. integrals

 OPERATOR DM      FOR CENTER  0  COORDINATES:    0.000000    0.000000    0.000000


 **********************************************************************************************************************************
 DATASETS  * FILE   NREC   LENGTH (MB)   RECORD NAMES
              1      19       20.93       500      610      700      900      950      970     1000      129      960     1100
                                          VAR    BASINP    GEOM    SYMINP    ZMAT    AOBASIS   BASIS     P2S    ABASIS      S
                                         1400     1410     1420     1200     1210     1080     1600     1650     1700
                                           T        V       ECP      H0       H01     AOSYM     SMH    MOLCAS    OPER

 PROGRAMS   *        TOTAL       INT
 CPU TIMES  *       130.43    129.91
 REAL TIME  *       136.02 SEC
 DISK USED  *         5.11 GB
 GA USED    *         0.00 MB       (max)       0.00 MB       (current)
 **********************************************************************************************************************************


 PROGRAM * RHF-SCF (OPEN SHELL)       Authors: W. Meyer, H.-J. Werner


 NUMBER OF ELECTRONS:      11+    4-    SPACE SYMMETRY=2    SPIN SYMMETRY: Octet
 CONVERGENCE THRESHOLDS:    1.00E-05 (Density)    1.00E-07 (Energy)
 MAX. NUMBER OF ITERATIONS:      100
 INTERPOLATION TYPE:            DIIS
 INTERPOLATION STEPS:              2 (START)      1 (STEP)
 LEVEL SHIFTS:                 -0.60 (CLOSED) -0.30 (OPEN)

 Number of closed-shell orbitals:    4 (   1   1   1   0   1   0   0   0 )
 Number of open-shell orbitals:      7 (   3   1   0   1   0   1   1   0 )



 Extra symmetries of mos in symmetry 1:   1   3   2   1
 Orbital guess generated from atomic densities. Full valence occupancy:    4   1   1   1   1   1   1   0


 Molecular orbital dump at record        4202.2

 ITERATION    DDIFF          GRAD             ENERGY        2-EL.EN.            DIPOLE MOMENTS         DIIS   ORB.
    1      0.000D+00      0.000D+00      -102.28087109    115.426045    0.00000    0.00000    0.00000    0    start
    2      0.000D+00      0.160D-01      -102.71112676    124.351652    0.00000    0.00000    0.00000    1    diag,B
    3      0.394D-01      0.536D-02      -102.75800673    124.960022    0.00000    0.00000    0.00000    2    diag,B
    4      0.714D-02      0.201D-02      -102.77545893    125.527207    0.00000    0.00000    0.00000    3    diag,B
    5      0.517D-02      0.670D-03      -102.77801724    125.735095    0.00000    0.00000    0.00000    4    diag,B
    6      0.215D-02      0.131D-03      -102.77808630    125.752288    0.00000    0.00000    0.00000    5    diag,B
    7      0.451D-03      0.255D-04      -102.77808778    125.755014    0.00000    0.00000    0.00000    6    fixocc
    8      0.982D-04      0.167D-04      -102.77808785    125.755533    0.00000    0.00000    0.00000    7    diag,B
    9      0.277D-03      0.115D-04      -102.77808779    125.755739    0.00000    0.00000    0.00000    8    diag,B
   10      0.262D-03      0.157D-04      -102.77808739    125.754730    0.00000    0.00000    0.00000    9    orth
   11      0.171D-03      0.227D-04      -102.77808786    125.755778    0.00000    0.00000    0.00000    9    diag,B
   12      0.119D-03      0.108D-04      -102.77808786    125.755867    0.00000    0.00000    0.00000    9    diag,B
   13      0.143D-03      0.219D-04      -102.77808786    125.755948    0.00000    0.00000    0.00000    9    diag,B
   14      0.214D-03      0.904D-05      -102.77808781    125.756014    0.00000    0.00000    0.00000    9    diag,B
   15      0.173D-03      0.190D-04      -102.77808786    125.755935    0.00000    0.00000    0.00000    9    diag,B
   16      0.179D-03      0.999D-05      -102.77808786    125.755899    0.00000    0.00000    0.00000    9    diag,B
   17      0.811D-04      0.196D-04      -102.77808786    125.755853    0.00000    0.00000    0.00000    9    diag,B
   18      0.866D-04      0.132D-04      -102.77808786    125.755908    0.00000    0.00000    0.00000    9    diag,B
   19      0.473D-04      0.186D-04      -102.77808785    125.755704    0.00000    0.00000    0.00000    9    diag,B
   20      0.727D-04      0.144D-04      -102.77808786    125.755909    0.00000    0.00000    0.00000    9    orth
   21      0.540D-04      0.200D-04      -102.77808785    125.755684    0.00000    0.00000    0.00000    9    diag,B
   22      0.746D-04      0.172D-04      -102.77808751    125.755388    0.00000    0.00000    0.00000    9    diag,B
   23      0.581D-04      0.238D-04      -102.77808785    125.755960    0.00000    0.00000    0.00000    9    diag,B
   24      0.739D-04      0.178D-04      -102.77808784    125.755955    0.00000    0.00000    0.00000    9    diag,B
   25      0.143D-03      0.221D-04      -102.77808783    125.755962    0.00000    0.00000    0.00000    9    diag,B
   26      0.109D-03      0.198D-04      -102.77808782    125.755956    0.00000    0.00000    0.00000    9    diag,B
   27      0.182D-03      0.238D-04      -102.77808785    125.756083    0.00000    0.00000    0.00000    9    diag,B
   28      0.104D-03      0.171D-04      -102.77808771    125.754620    0.00000    0.00000    0.00000    9    diag,B
   29      0.724D-04      0.214D-04      -102.77808781    125.755875    0.00000    0.00000    0.00000    9    diag,B
   30      0.211D-03      0.217D-04      -102.77808786    125.755905    0.00000    0.00000    0.00000    9    orth
   31      0.178D-03      0.200D-04      -102.77808783    125.755960    0.00000    0.00000    0.00000    9    diag,B
   32      0.120D-03      0.201D-04      -102.77808786    125.755966    0.00000    0.00000    0.00000    9    diag,B
   33      0.198D-03      0.198D-04      -102.77808785    125.756026    0.00000    0.00000    0.00000    9    diag,B
   34      0.105D-03      0.181D-04      -102.77808786    125.755963    0.00000    0.00000    0.00000    9    diag,B
   35      0.698D-04      0.196D-04      -102.77808785    125.755967    0.00000    0.00000    0.00000    9    diag,B
   36      0.932D-04      0.168D-04      -102.77808787    125.755937    0.00000    0.00000    0.00000    9    diag,B
   37      0.960D-04      0.191D-04      -102.77808786    125.755928    0.00000    0.00000    0.00000    9    diag,B
   38      0.758D-04      0.168D-04      -102.77808664    125.752358    0.00000    0.00000    0.00000    9    diag,B
   39      0.190D-03      0.319D-04      -102.77808786    125.755920    0.00000    0.00000    0.00000    9    diag,B
   40      0.125D-03      0.164D-04      -102.77808785    125.755935    0.00000    0.00000    0.00000    9    orth
   41      0.692D-04      0.230D-04      -102.77808783    125.755940    0.00000    0.00000    0.00000    9    diag,B
   42      0.158D-03      0.202D-04      -102.77808786    125.755956    0.00000    0.00000    0.00000    9    diag,B
   43      0.119D-03      0.203D-04      -102.77808785    125.755851    0.00000    0.00000    0.00000    9    diag,B
   44      0.598D-04      0.165D-04      -102.77808751    125.753886    0.00000    0.00000    0.00000    9    diag,B
   45      0.656D-04      0.263D-04      -102.77808784    125.755923    0.00000    0.00000    0.00000    9    diag,B
   46      0.125D-03      0.179D-04      -102.77808785    125.755904    0.00000    0.00000    0.00000    9    diag,B
   47      0.126D-03      0.210D-04      -102.77808784    125.756004    0.00000    0.00000    0.00000    9    diag,B
   48      0.671D-04      0.198D-04      -102.77808784    125.755977    0.00000    0.00000    0.00000    9    diag,B
   49      0.731D-04      0.222D-04      -102.77808786    125.755889    0.00000    0.00000    0.00000    9    diag,B
   50      0.121D-03      0.165D-04      -102.77808731    125.752776    0.00000    0.00000    0.00000    9    orth
   51      0.144D-03      0.289D-04      -102.77808782    125.755890    0.00000    0.00000    0.00000    9    diag,B
   52      0.250D-03      0.205D-04      -102.77808784    125.755850    0.00000    0.00000    0.00000    9    diag,B
   53      0.168D-03      0.220D-04      -102.77808783    125.755968    0.00000    0.00000    0.00000    9    diag,B
   54      0.158D-03      0.195D-04      -102.77808786    125.755970    0.00000    0.00000    0.00000    9    diag,B
   55      0.181D-03      0.200D-04      -102.77808779    125.756073    0.00000    0.00000    0.00000    9    diag,B
   56      0.144D-03      0.234D-04      -102.77808744    125.758558    0.00000    0.00000    0.00000    9    diag,B
   57      0.164D-03      0.274D-04      -102.77808783    125.755934    0.00000    0.00000    0.00000    9    diag,B
   58      0.185D-03      0.196D-04      -102.77808786    125.755975    0.00000    0.00000    0.00000    9    diag,B
   59      0.172D-03      0.239D-04      -102.77808786    125.755945    0.00000    0.00000    0.00000    9    diag,B
   60      0.671D-04      0.161D-04      -102.77808786    125.755884    0.00000    0.00000    0.00000    9    orth
   61      0.603D-04      0.264D-04      -102.77808786    125.755846    0.00000    0.00000    0.00000    9    diag,B
   62      0.780D-04      0.160D-04      -102.77808785    125.756015    0.00000    0.00000    0.00000    9    diag,B
   63      0.734D-04      0.203D-04      -102.77808782    125.756138    0.00000    0.00000    0.00000    9    diag,B
   64      0.120D-03      0.207D-04      -102.77808783    125.755877    0.00000    0.00000    0.00000    9    diag,B
   65      0.117D-03      0.216D-04      -102.77808786    125.755962    0.00000    0.00000    0.00000    9    diag,B
   66      0.986D-04      0.169D-04      -102.77808756    125.755462    0.00000    0.00000    0.00000    9    diag,B
   67      0.866D-04      0.237D-04      -102.77808784    125.755977    0.00000    0.00000    0.00000    9    diag,B
   68      0.603D-04      0.174D-04      -102.77808784    125.755996    0.00000    0.00000    0.00000    9    diag,B
   69      0.920D-04      0.207D-04      -102.77808785    125.756038    0.00000    0.00000    0.00000    9    diag,B
   70      0.598D-04      0.173D-04      -102.77808784    125.755890    0.00000    0.00000    0.00000    9    orth
   71      0.928D-04      0.211D-04      -102.77808783    125.755888    0.00000    0.00000    0.00000    9    diag,B
   72      0.113D-03      0.207D-04      -102.77808781    125.755964    0.00000    0.00000    0.00000    9    diag,B
   73      0.738D-04      0.251D-04      -102.77808785    125.756092    0.00000    0.00000    0.00000    9    diag,B
   74      0.138D-03      0.164D-04      -102.77808776    125.756003    0.00000    0.00000    0.00000    9    diag,B
   75      0.211D-03      0.287D-04      -102.77808786    125.755953    0.00000    0.00000    0.00000    9    diag,B
   76      0.216D-03      0.175D-04      -102.77808783    125.755877    0.00000    0.00000    0.00000    9    diag,B
   77      0.837D-04      0.219D-04      -102.77808786    125.755930    0.00000    0.00000    0.00000    9    diag,B
   78      0.971D-04      0.161D-04      -102.77808785    125.756000    0.00000    0.00000    0.00000    9    diag,B
   79      0.604D-04      0.207D-04      -102.77808782    125.756037    0.00000    0.00000    0.00000    9    diag,B
   80      0.165D-03      0.208D-04      -102.77808734    125.756012    0.00000    0.00000    0.00000    9    orth
   81      0.201D-03      0.270D-04      -102.77808785    125.755861    0.00000    0.00000    0.00000    9    diag,B
   82      0.115D-03      0.206D-04      -102.77808768    125.754541    0.00000    0.00000    0.00000    9    diag,B
   83      0.131D-03      0.239D-04      -102.77808785    125.756006    0.00000    0.00000    0.00000    9    diag,B
   84      0.833D-04      0.188D-04      -102.77808786    125.755898    0.00000    0.00000    0.00000    9    diag,B
   85      0.953D-04      0.199D-04      -102.77808785    125.756141    0.00000    0.00000    0.00000    9    diag,B
   86      0.884D-04      0.182D-04      -102.77808786    125.756012    0.00000    0.00000    0.00000    9    diag,B
   87      0.696D-04      0.196D-04      -102.77808786    125.755868    0.00000    0.00000    0.00000    9    diag,B
   88      0.626D-04      0.166D-04      -102.77808786    125.755989    0.00000    0.00000    0.00000    9    diag,B
   89      0.657D-04      0.201D-04      -102.77808786    125.756071    0.00000    0.00000    0.00000    9    diag,B
   90      0.584D-04      0.166D-04      -102.77808779    125.755933    0.00000    0.00000    0.00000    9    orth
   91      0.732D-04      0.283D-04      -102.77808786    125.755959    0.00000    0.00000    0.00000    9    diag,B
   92      0.890D-04      0.162D-04      -102.77808784    125.755968    0.00000    0.00000    0.00000    9    diag,B
   93      0.757D-04      0.222D-04      -102.77808786    125.755838    0.00000    0.00000    0.00000    9    diag,B
   94      0.862D-04      0.161D-04      -102.77808786    125.755971    0.00000    0.00000    0.00000    9    diag,B
   95      0.605D-04      0.198D-04      -102.77808786    125.756080    0.00000    0.00000    0.00000    9    diag,B
   96      0.595D-04      0.163D-04      -102.77808786    125.755957    0.00000    0.00000    0.00000    9    diag,B
   97      0.588D-04      0.196D-04      -102.77808786    125.755852    0.00000    0.00000    0.00000    9    diag,B
   98      0.611D-04      0.167D-04      -102.77808783    125.755970    0.00000    0.00000    0.00000    9    diag,B
   99      0.131D-03      0.233D-04      -102.77808787    125.755950    0.00000    0.00000    0.00000    9    orth
  100      0.142D-03      0.821D-05      -102.77808787    125.755975    0.00000    0.00000    0.00000    0    orth

 Final alpha occupancy:   4   2   1   1   1   1   1   0
 Final beta  occupancy:   1   1   1   0   1   0   0   0

 !RHF STATE 1.2 Energy               -102.778087868489
   --><property name="Energy" method="RHF" principal="true" stateSymmetry="2" stateNumber="1"
     value="-102.778087868489"/><!--
 Nuclear energy                         0.00000000
 One-electron energy                 -165.65607536
 Two-electron energy                   62.87798750
 Virial quotient                       -3.23402181
 !RHF STATE 1.2 Dipole moment           0.00000000     0.00000000     0.00000000
 Dipole moment /Debye                   0.00000000     0.00000000     0.00000000
   --><property name="Dipole moment" method="RHF" principal="true" stateSymmetry="2"
     stateNumber="1" value="0.0 0.0 0.0"/><!--

 ELECTRON ORBITALS
 =================


   Orb  Occ    Energy  Couls-En    Coefficients

                                   1 1s      1 1s      1 1s      1 1s      1 1s      1 1s      1 1s      1 1s      1 1s      1 1s
                                   1 1s      1 1s      1 1s      1 1s      1 1s      1 1s      1 1s      1 1s      1 1s      1 1s
                                   1 1s      1 1s      1 1s      1 1s      1 1s      1 1s      1 1s      1 1s      1 1s      1 1s
                                   1 1s      1 1s      1 1s      1 1s      1 1s      1 1s      1 1s      1 3d0     1 3d2+    1 3d0
                                   1 3d2+    1 3d0     1 3d2+    1 3d0     1 3d2+    1 3d0     1 3d2+    1 3d0     1 3d2+    1 3d0
                                   1 3d2+    1 3d0     1 3d2+    1 3d0     1 3d2+    1 3d0     1 3d2+    1 3d0     1 3d2+    1 3d0
                                   1 3d2+    1 3d0     1 3d2+    1 3d0     1 3d2+    1 3d0     1 3d2+    1 3d0     1 3d2+    1 3d0
                                   1 3d2+    1 3d0     1 3d2+    1 3d0     1 3d2+    1 3d0     1 3d2+    1 3d0     1 3d2+    1 3d0
                                   1 3d2+    1 5g0     1 5g4+    1 5g2+    1 5g0     1 5g4+    1 5g2+    1 5g0     1 5g4+    1 5g2+


   1.1   2    -5.1965  -19.9001  0.000000 -0.000000  0.000000 -0.000000  0.000000 -0.000000  0.000000 -0.000000  0.000000 -0.000000
                                 0.000001 -0.000003  0.000007 -0.000018  0.000055 -0.000201  0.001510 -0.003276  0.003208 -0.003262
                                 0.006276 -0.015347  0.050316 -0.312045  0.805111 -0.822902  0.643142 -0.557997 -1.094573  0.829819
                                 0.582949  0.382667  0.293289  0.029692 -0.015864  0.005387 -0.001448  0.000000 -0.000000 -0.000000
                                 0.000000  0.000000 -0.000000 -0.000000  0.000000  0.000000 -0.000000 -0.000000  0.000000 -0.000000
                                 0.000000  0.000000 -0.000000 -0.000000  0.000000 -0.000000  0.000000 -0.000000  0.000001  0.000000
                                -0.000006 -0.000043  0.000113  0.000045 -0.000140  0.000007  0.000060 -0.000126  0.000167  0.000277
                                -0.000462 -0.000327  0.000544  0.001644 -0.002834  0.000315 -0.000547  0.000084 -0.000145  0.000021
                                -0.000036  0.000002  0.000004 -0.000003 -0.000004 -0.000008  0.000006  0.000005  0.000009 -0.000007

   2.1   +    -1.4447  -10.9531 -0.000000  0.000000 -0.000000  0.000000 -0.000000  0.000000 -0.000000  0.000000 -0.000000  0.000000
                                -0.000000  0.000000 -0.000000  0.000000 -0.000001  0.000002 -0.000017  0.000036 -0.000035  0.000035
                                -0.000066  0.000155 -0.000458  0.002444 -0.005649  0.005207 -0.003923  0.011629 -0.054959  0.061022
                                -0.040560  0.119883 -0.113903  0.010746  0.029826 -0.003510  0.000958 -0.000000  0.000000  0.000000
                                -0.000000 -0.000000  0.000000  0.000000 -0.000000 -0.000001  0.000002  0.000003 -0.000006 -0.000010
                                 0.000017  0.000034 -0.000060 -0.000093  0.000162  0.000399 -0.000691 -0.000321  0.000555  0.001190
                                -0.002056  0.040702 -0.070537 -0.072552  0.125718  0.077032 -0.133461 -0.031362  0.054329 -0.140362
                                 0.243196 -0.002189  0.003777 -0.226436  0.392334 -0.170206  0.294891 -0.041162  0.071315  0.000056
                                -0.000108 -0.000895 -0.001765  0.001333  0.001527  0.003009 -0.002273 -0.002304 -0.004542  0.003431

   3.1   +    -1.4580  -11.0101 -0.000000  0.000000 -0.000000  0.000000 -0.000000  0.000000 -0.000000  0.000000 -0.000000  0.000000
                                -0.000000  0.000000 -0.000000  0.000000 -0.000000  0.000000 -0.000000  0.000000 -0.000000  0.000000
                                -0.000000  0.000000 -0.000000  0.000002 -0.000004  0.000004 -0.000003  0.000005 -0.000006  0.000004
                                -0.000002 -0.000012  0.000013  0.000004 -0.000006 -0.000002  0.000000  0.000000  0.000000 -0.000000
                                -0.000000  0.000000  0.000000 -0.000001 -0.000000  0.000002  0.000001 -0.000007 -0.000004  0.000021
                                 0.000012 -0.000069 -0.000040  0.000184  0.000106 -0.000750 -0.000433  0.000721  0.000415 -0.002968
                                -0.001711 -0.066223 -0.038230  0.119204  0.068812 -0.125987 -0.072725  0.047923  0.027665  0.248822
                                 0.143613 -0.008125 -0.004689  0.410883  0.237153  0.292008  0.168540  0.058170  0.033571 -0.001215
                                -0.000704  0.000862 -0.001019 -0.000770 -0.001469  0.001737  0.001313  0.002222 -0.002628 -0.001987

   4.1   +    -1.1180   -8.1107 -0.000000  0.000000 -0.000000  0.000000 -0.000000  0.000000 -0.000000  0.000000 -0.000000  0.000000
                                -0.000000  0.000001 -0.000002  0.000007 -0.000019  0.000071 -0.000536  0.001164 -0.001142  0.001166
                                -0.002272  0.005605 -0.018937  0.122317 -0.326146  0.346441 -0.306744  0.395122  0.209417 -0.153979
                                -0.474760 -0.355189 -0.246549  0.934548  0.429882 -0.025570  0.007080  0.000000 -0.000000 -0.000000
                                 0.000000  0.000000 -0.000000 -0.000000  0.000000  0.000000 -0.000000 -0.000001  0.000001  0.000002
                                -0.000004 -0.000006  0.000010  0.000015 -0.000027 -0.000048  0.000083  0.000099 -0.000170 -0.000543
                                 0.000935  0.000406 -0.000684  0.000035 -0.000079 -0.000454  0.000789 -0.000744  0.001293  0.009602
                                -0.016639 -0.004956  0.008596  0.017930 -0.031069  0.001574 -0.002725 -0.017744  0.030733 -0.003108
                                 0.005406  0.000024  0.000046 -0.000035 -0.000035 -0.000067  0.000051  0.000076  0.000147 -0.000112

   5.1   0    -0.2606   -3.3719  0.000000 -0.000000  0.000000 -0.000000  0.000000 -0.000000  0.000000 -0.000000  0.000000 -0.000000
                                 0.000000 -0.000000  0.000001 -0.000002  0.000007 -0.000024  0.000184 -0.000399  0.000392 -0.000400
                                 0.000785 -0.001943  0.006646 -0.043566  0.117358 -0.125931  0.113949 -0.149265 -0.096576  0.080855
                                 0.174355  0.167130  0.116191 -0.541563 -0.810255  1.185079  0.441237 -0.000000  0.000000  0.000000
                                -0.000000 -0.000000  0.000000  0.000000 -0.000000 -0.000000  0.000001  0.000002 -0.000004 -0.000005
                                 0.000011  0.000013 -0.000029 -0.000033  0.000073  0.000083 -0.000187 -0.000245  0.000545  0.001382
                                -0.003072 -0.007177  0.015730  0.010885 -0.023823 -0.011635  0.025497  0.008800 -0.019433 -0.006424
                                 0.015088  0.012751 -0.028779 -0.012230  0.029110  0.002997 -0.006011 -0.006718  0.011851  0.034192
                                -0.074493 -0.000000  0.000002  0.000000  0.000001 -0.000007  0.000001 -0.000008 -0.000014  0.000012

   6.1   0    -0.2087   -3.8378 -0.000000  0.000000 -0.000000  0.000000 -0.000000  0.000000 -0.000000  0.000000 -0.000000  0.000000
                                -0.000000  0.000000 -0.000000  0.000000 -0.000000  0.000001 -0.000009  0.000020 -0.000019  0.000020
                                -0.000042  0.000110 -0.000426  0.003162 -0.009127  0.010350 -0.009851  0.008547  0.046781 -0.049743
                                 0.010804 -0.087954  0.047475  0.041546  0.023681  0.011214 -0.070264 -0.000000  0.000000  0.000000
                                -0.000000 -0.000001  0.000000  0.000004 -0.000001 -0.000015  0.000005  0.000050 -0.000017 -0.000148
                                 0.000052  0.000399 -0.000139 -0.000997  0.000348  0.002598 -0.000916 -0.007352  0.002549  0.041330
                                -0.014314 -0.198689  0.066204  0.297853 -0.098476 -0.318398  0.104681  0.249883 -0.083320 -0.242440
                                 0.091198  0.400892 -0.137530 -0.484040  0.180277  0.046080 -0.010618  0.006387 -0.030992  0.919161
                                -0.327906 -0.000054 -0.000039  0.000068  0.000018  0.000012 -0.000022 -0.000421 -0.000282  0.000523

                                   1 2px     1 2px     1 2px     1 2px     1 2px     1 2px     1 2px     1 2px     1 2px     1 2px
                                   1 2px     1 2px     1 2px     1 2px     1 2px     1 2px     1 2px     1 2px     1 2px     1 2px
                                   1 2px     1 2px     1 2px     1 2px     1 2px     1 2px     1 2px     1 2px     1 2px     1 2px
                                   1 2px     1 2px     1 4f1+    1 4f3+    1 4f1+    1 4f3+    1 4f1+    1 4f3+    1 4f1+    1 4f3+
                                   1 4f1+    1 4f3+    1 4f1+    1 4f3+    1 4f1+    1 4f3+    1 4f1+    1 4f3+    1 4f1+    1 4f3+
                                   1 4f1+    1 4f3+    1 4f1+    1 4f3+    1 4f1+    1 4f3+    1 4f1+    1 4f3+    1 4f1+    1 4f3+
                                   1 4f1+    1 4f3+

   1.2   2    -3.3849  -16.0332 -0.000000  0.000000 -0.000000  0.000000 -0.000000  0.000000 -0.000000  0.000000 -0.000000  0.000001
                                -0.000003  0.000013 -0.000082  0.000301 -0.000340  0.000280 -0.000559  0.001246 -0.004723  0.015183
                                -0.093257  0.773608 -1.100432  0.388080 -0.314657  0.479474  0.530852  0.073706  0.208449  0.010517
                                -0.005074  0.000487  0.000000 -0.000000 -0.000000  0.000000  0.000000 -0.000000 -0.000000  0.000001
                                 0.000001 -0.000001 -0.000004  0.000005  0.000006 -0.000008 -0.000040  0.000052  0.000176 -0.000228
                                 0.000096 -0.000124  0.000107 -0.000138  0.000880 -0.001136  0.000986 -0.001273  0.000038 -0.000050
                                -0.000103  0.000133

   2.2   +    -0.7756   -6.5817 -0.000000  0.000000 -0.000000  0.000000 -0.000000  0.000000 -0.000000  0.000000 -0.000000  0.000001
                                -0.000002  0.000009 -0.000060  0.000219 -0.000243  0.000171 -0.000224  0.000376  0.000023 -0.001376
                                 0.024124 -0.229485  0.326617  0.013118 -0.087947 -0.090729 -0.413248  0.077776 -0.112202  0.750265
                                 0.417949 -0.011518 -0.000000  0.000000  0.000000 -0.000000 -0.000000  0.000000  0.000001 -0.000001
                                -0.000001  0.000002  0.000004 -0.000005 -0.000010  0.000013  0.000029 -0.000037 -0.000186  0.000240
                                 0.000504 -0.000651 -0.000677  0.000876  0.000870 -0.001125 -0.000697  0.000901 -0.000263  0.000338
                                -0.001872  0.002417

   3.2   0    -0.1901   -2.8346  0.000000 -0.000000  0.000000 -0.000000  0.000000 -0.000000  0.000000 -0.000000  0.000000 -0.000002
                                 0.000005 -0.000022  0.000140 -0.000514  0.000575 -0.000432  0.000703 -0.001379  0.003296 -0.008686
                                 0.036631 -0.356339  0.627786 -0.797604  0.829510 -0.499649  0.282136 -0.571656  0.342111  0.186718
                                 0.705888 -1.435225 -0.000000  0.000000  0.000001 -0.000001 -0.000004  0.000005  0.000014 -0.000018
                                -0.000042  0.000054  0.000110 -0.000142 -0.000288  0.000372  0.000867 -0.001119 -0.005510  0.007114
                                 0.014299 -0.018461 -0.023457  0.030283  0.026045 -0.033625 -0.023194  0.029944  0.018283 -0.023603
                                -0.010691  0.013803

   4.2   0     0.0271   -4.5266 -0.000000  0.000000 -0.000000  0.000000 -0.000000  0.000000 -0.000000  0.000000 -0.000000  0.000000
                                -0.000000  0.000000 -0.000000  0.000000 -0.000000  0.000000 -0.000000  0.000000 -0.000000  0.000000
                                -0.000001  0.000013 -0.000026  0.000043 -0.000047  0.000025 -0.000027  0.000035 -0.000024  0.000020
                                -0.000022  0.000010  0.000006  0.000004 -0.000039 -0.000030  0.000178  0.000138 -0.000634 -0.000491
                                 0.001857  0.001439 -0.004970 -0.003850  0.012697  0.009836 -0.039097 -0.030288  0.244692  0.189558
                                -0.606027 -0.469477  1.026914  0.795529 -1.108165 -0.858473  1.076125  0.833652 -0.703738 -0.545171
                                 0.967949  0.749851

                                   1 2py     1 2py     1 2py     1 2py     1 2py     1 2py     1 2py     1 2py     1 2py     1 2py
                                   1 2py     1 2py     1 2py     1 2py     1 2py     1 2py     1 2py     1 2py     1 2py     1 2py
                                   1 2py     1 2py     1 2py     1 2py     1 2py     1 2py     1 2py     1 2py     1 2py     1 2py
                                   1 2py     1 2py     1 4f1-    1 4f3-    1 4f1-    1 4f3-    1 4f1-    1 4f3-    1 4f1-    1 4f3-
                                   1 4f1-    1 4f3-    1 4f1-    1 4f3-    1 4f1-    1 4f3-    1 4f1-    1 4f3-    1 4f1-    1 4f3-
                                   1 4f1-    1 4f3-    1 4f1-    1 4f3-    1 4f1-    1 4f3-    1 4f1-    1 4f3-    1 4f1-    1 4f3-
                                   1 4f1-    1 4f3-

   1.3   2    -3.3970  -16.0205 -0.000000  0.000000 -0.000000  0.000000 -0.000000  0.000000 -0.000000  0.000000 -0.000000  0.000001
                                -0.000003  0.000013 -0.000082  0.000301 -0.000340  0.000280 -0.000558  0.001243 -0.004696  0.015090
                                -0.092442  0.765055 -1.085999  0.376642 -0.304408  0.469584  0.525022  0.074324  0.214705  0.016917
                                -0.001742  0.000420  0.000000 -0.000000 -0.000000  0.000000  0.000000 -0.000000 -0.000000  0.000000
                                 0.000000 -0.000001 -0.000001  0.000005  0.000002 -0.000008 -0.000013  0.000051  0.000057 -0.000221
                                 0.000035 -0.000136  0.000032 -0.000123  0.000294 -0.001139  0.000327 -0.001265  0.000019 -0.000072
                                -0.000037  0.000142

   2.3   0    -0.5021   -6.0552 -0.000000  0.000000 -0.000000  0.000000 -0.000000  0.000000 -0.000000  0.000000 -0.000000  0.000000
                                -0.000001  0.000006 -0.000037  0.000137 -0.000153  0.000104 -0.000122  0.000181  0.000378 -0.002166
                                 0.025154 -0.236803  0.345302 -0.054279 -0.008956 -0.120066 -0.345078  0.039220 -0.099272  0.601359
                                 0.527792  0.029762  0.000000 -0.000000 -0.000000  0.000000  0.000000 -0.000000 -0.000000  0.000001
                                 0.000001 -0.000003 -0.000002  0.000009  0.000006 -0.000023 -0.000019  0.000072  0.000119 -0.000458
                                -0.000304  0.001173  0.000541 -0.002090 -0.000569  0.002197  0.000527 -0.002037 -0.000747  0.002891
                                -0.000152  0.000591

   3.3   0    -0.1912   -2.9214 -0.000000  0.000000 -0.000000  0.000000 -0.000000  0.000000 -0.000000  0.000000 -0.000000  0.000002
                                -0.000005  0.000021 -0.000136  0.000498 -0.000557  0.000419 -0.000685  0.001347 -0.003275  0.008711
                                -0.037765  0.366073 -0.639342  0.785015 -0.811920  0.496743 -0.251258  0.548308 -0.312743 -0.210703
                                -0.796037  1.458635  0.000000 -0.000000 -0.000000  0.000001  0.000001 -0.000005 -0.000005  0.000018
                                 0.000014 -0.000053 -0.000036  0.000139  0.000094 -0.000362 -0.000282  0.001091  0.001789 -0.006931
                                -0.004643  0.017983  0.007613 -0.029488 -0.008453  0.032744  0.007523 -0.029140 -0.005875  0.022759
                                 0.003433 -0.013297

                                   1 3d2-    1 3d2-    1 3d2-    1 3d2-    1 3d2-    1 3d2-    1 3d2-    1 3d2-    1 3d2-    1 3d2-
                                   1 3d2-    1 3d2-    1 3d2-    1 3d2-    1 3d2-    1 3d2-    1 3d2-    1 3d2-    1 3d2-    1 3d2-
                                   1 3d2-    1 3d2-    1 5g2-    1 5g4-    1 5g2-    1 5g4-    1 5g2-    1 5g4-

   1.4   +    -1.4476  -10.9710  0.000000 -0.000000  0.000000 -0.000001  0.000002 -0.000007  0.000021 -0.000072  0.000194 -0.000816
                                 0.000692 -0.002657 -0.080169  0.143253 -0.151934  0.060846  0.282705  0.000828  0.458883  0.339589
                                 0.077982 -0.000528  0.000771 -0.002039 -0.001314  0.003476  0.001984 -0.005250

   2.4   0    -0.2095   -3.8538 -0.000000  0.000000 -0.000001  0.000004 -0.000015  0.000052 -0.000156  0.000419 -0.001046  0.002733
                                -0.007704  0.043301 -0.206383  0.308858 -0.329749  0.259581 -0.258943  0.419100 -0.515752  0.044629
                                 0.026932  0.970790 -0.000035  0.000091  0.000010 -0.000027 -0.000267  0.000706

   3.4   0     0.1214   -3.8181  0.000000 -0.000001  0.000006 -0.000028  0.000113 -0.000386  0.001152 -0.003060  0.007602 -0.019005
                                 0.057887 -0.327682  1.819804 -2.802089  3.053275 -2.292187  1.304905 -3.483722  2.908238 -1.327369
                                 2.227906 -1.310377  0.000290 -0.000767 -0.000744  0.001969  0.000245 -0.000649

                                   1 2pz     1 2pz     1 2pz     1 2pz     1 2pz     1 2pz     1 2pz     1 2pz     1 2pz     1 2pz
                                   1 2pz     1 2pz     1 2pz     1 2pz     1 2pz     1 2pz     1 2pz     1 2pz     1 2pz     1 2pz
                                   1 2pz     1 2pz     1 2pz     1 2pz     1 2pz     1 2pz     1 2pz     1 2pz     1 2pz     1 2pz
                                   1 2pz     1 2pz     1 4f0     1 4f2+    1 4f0     1 4f2+    1 4f0     1 4f2+    1 4f0     1 4f2+
                                   1 4f0     1 4f2+    1 4f0     1 4f2+    1 4f0     1 4f2+    1 4f0     1 4f2+    1 4f0     1 4f2+
                                   1 4f0     1 4f2+    1 4f0     1 4f2+    1 4f0     1 4f2+    1 4f0     1 4f2+    1 4f0     1 4f2+
                                   1 4f0     1 4f2+

   1.5   2    -3.3970  -16.0205 -0.000000  0.000000 -0.000000  0.000000 -0.000000  0.000000 -0.000000  0.000000 -0.000000  0.000001
                                -0.000003  0.000013 -0.000082  0.000301 -0.000340  0.000280 -0.000558  0.001242 -0.004696  0.015089
                                -0.092442  0.765055 -1.085999  0.376644 -0.304411  0.469585  0.525020  0.074325  0.214705  0.016917
                                -0.001742  0.000420  0.000000 -0.000000 -0.000000  0.000000  0.000000 -0.000000 -0.000000  0.000000
                                 0.000001 -0.000001 -0.000003  0.000004  0.000005 -0.000006 -0.000032  0.000042  0.000140 -0.000181
                                 0.000086 -0.000111  0.000078 -0.000100  0.000720 -0.000930  0.000800 -0.001033  0.000046 -0.000059
                                -0.000090  0.000116

   2.5   0    -0.5021   -6.0552 -0.000000  0.000000 -0.000000  0.000000 -0.000000  0.000000 -0.000000  0.000000 -0.000000  0.000000
                                -0.000001  0.000006 -0.000037  0.000137 -0.000153  0.000104 -0.000122  0.000181  0.000378 -0.002166
                                 0.025154 -0.236803  0.345303 -0.054281 -0.008953 -0.120067 -0.345076  0.039218 -0.099271  0.601357
                                 0.527793  0.029763  0.000000 -0.000000 -0.000000  0.000000  0.000000 -0.000000 -0.000001  0.000001
                                 0.000002 -0.000003 -0.000006  0.000007  0.000015 -0.000019 -0.000046  0.000059  0.000290 -0.000374
                                -0.000743  0.000958  0.001323 -0.001707 -0.001391  0.001794  0.001290 -0.001663 -0.001829  0.002361
                                -0.000374  0.000483

   3.5   0    -0.1912   -2.9214 -0.000000  0.000000 -0.000000  0.000000 -0.000000  0.000000 -0.000000  0.000000 -0.000000  0.000002
                                -0.000005  0.000021 -0.000136  0.000498 -0.000557  0.000419 -0.000685  0.001348 -0.003275  0.008711
                                -0.037765  0.366074 -0.639345  0.785020 -0.811925  0.496746 -0.251260  0.548312 -0.312745 -0.210702
                                -0.796040  1.458636  0.000000 -0.000000 -0.000001  0.000001  0.000003 -0.000004 -0.000011  0.000015
                                 0.000033 -0.000043 -0.000088  0.000113  0.000229 -0.000296 -0.000690  0.000891  0.004383 -0.005659
                                -0.011373  0.014683  0.018649 -0.024076 -0.020708  0.026735  0.018429 -0.023792 -0.014393  0.018582
                                 0.008410 -0.010857

                                   1 3d1+    1 3d1+    1 3d1+    1 3d1+    1 3d1+    1 3d1+    1 3d1+    1 3d1+    1 3d1+    1 3d1+
                                   1 3d1+    1 3d1+    1 3d1+    1 3d1+    1 3d1+    1 3d1+    1 3d1+    1 3d1+    1 3d1+    1 3d1+
                                   1 3d1+    1 3d1+    1 5g1+    1 5g3+    1 5g1+    1 5g3+    1 5g1+    1 5g3+

   1.6   +    -1.4476  -10.9710  0.000000 -0.000000  0.000000 -0.000001  0.000002 -0.000007  0.000021 -0.000072  0.000194 -0.000816
                                 0.000692 -0.002657 -0.080169  0.143253 -0.151934  0.060846  0.282705  0.000828  0.458883  0.339590
                                 0.077982 -0.000528  0.001635 -0.001442 -0.002787  0.002458  0.004209 -0.003712

   2.6   0    -0.2095   -3.8538 -0.000000  0.000000 -0.000001  0.000004 -0.000015  0.000052 -0.000156  0.000419 -0.001046  0.002733
                                -0.007704  0.043301 -0.206383  0.308858 -0.329749  0.259581 -0.258943  0.419100 -0.515752  0.044629
                                 0.026932  0.970790 -0.000073  0.000065  0.000022 -0.000019 -0.000566  0.000499

   3.6   0     0.1214   -3.8181  0.000000 -0.000001  0.000006 -0.000028  0.000113 -0.000386  0.001152 -0.003060  0.007602 -0.019005
                                 0.057887 -0.327683  1.819804 -2.802090  3.053276 -2.292188  1.304906 -3.483723  2.908239 -1.327369
                                 2.227906 -1.310377  0.000615 -0.000542 -0.001578  0.001392  0.000520 -0.000459

                                   1 3d1-    1 3d1-    1 3d1-    1 3d1-    1 3d1-    1 3d1-    1 3d1-    1 3d1-    1 3d1-    1 3d1-
                                   1 3d1-    1 3d1-    1 3d1-    1 3d1-    1 3d1-    1 3d1-    1 3d1-    1 3d1-    1 3d1-    1 3d1-
                                   1 3d1-    1 3d1-    1 5g1-    1 5g3-    1 5g1-    1 5g3-    1 5g1-    1 5g3-

   1.7   +    -1.4580  -11.0101  0.000000 -0.000000  0.000000 -0.000001  0.000002 -0.000008  0.000024 -0.000079  0.000213 -0.000865
                                 0.000832 -0.003425 -0.076468  0.137642 -0.145470  0.055334  0.287294 -0.009383  0.474412  0.337156
                                 0.067162 -0.001405  0.000545 -0.001441 -0.000928  0.002457  0.001405 -0.003717

   2.7   0    -0.2082   -3.7761 -0.000000  0.000000 -0.000001  0.000004 -0.000016  0.000054 -0.000163  0.000437 -0.001091  0.002835
                                -0.008059  0.045317 -0.219923  0.330293 -0.353541  0.276541 -0.260098  0.440604 -0.520723  0.054755
                                -0.015792  1.000235 -0.000022  0.000057  0.000007 -0.000019 -0.000174  0.000459

   3.7   0     0.1220   -3.8385  0.000000 -0.000001  0.000006 -0.000028  0.000113 -0.000388  0.001158 -0.003075  0.007642 -0.019109
                                 0.058188 -0.329430  1.828576 -2.815516  3.068130 -2.304084  1.317662 -3.511567  2.941493 -1.350861
                                 2.244868 -1.289649  0.000211 -0.000559 -0.000537  0.001421  0.000185 -0.000491

                                   1 4f2-    1 4f2-    1 4f2-    1 4f2-    1 4f2-    1 4f2-    1 4f2-    1 4f2-    1 4f2-    1 4f2-
                                   1 4f2-    1 4f2-    1 4f2-    1 4f2-    1 4f2-

   1.8   0     0.0271   -4.5266  0.000007 -0.000049  0.000225 -0.000802  0.002350 -0.006287  0.016062 -0.049456  0.309527 -0.766601
                                 1.299006 -1.401786  1.361256 -0.890201  1.224419

   2.8   0     0.6084   -4.4727 -0.000017  0.000115 -0.000534  0.001894 -0.005629  0.014756 -0.039469  0.117422 -0.766654  2.097439
                                -3.439004  4.023610 -3.486247  3.370012 -1.500634

 HOMO      2.2    -0.775562 =     -21.1041eV
 LUMO      2.5    -0.502128 =     -13.6636eV
 LUMO-HOMO         0.273434 =       7.4405eV

 No convergence



 **********************************************************************************************************************************
 DATASETS  * FILE   NREC   LENGTH (MB)   RECORD NAMES
              1      19       20.98       500      610      700      900      950      970     1000      129      960     1100
                                          VAR    BASINP    GEOM    SYMINP    ZMAT    AOBASIS   BASIS     P2S    ABASIS      S
                                         1400     1410     1420     1200     1210     1080     1600     1650     1700
                                           T        V       ECP      H0       H01     AOSYM     SMH    MOLCAS    OPER

              2       5        6.03       200      700     1000      520     4202
                                        OPTIONS   GEOM     BASIS   MCVARS     RHF

 PROGRAMS   *        TOTAL       RHF       INT
 CPU TIMES  *       141.27     10.84    129.91
 REAL TIME  *       148.41 SEC
 DISK USED  *         5.45 GB
 SF USED    *         0.09 MB
 GA USED    *         0.00 MB       (max)       0.00 MB       (current)
 **********************************************************************************************************************************
   -->
   <time start="19:19:29" end="19:21:57" cpu="141.27" system="5.25" real="148.41"/>
   <storage units="megabyte" memory="8193.84" sf="0.09" df="333.85" eaf="5113.94" ga="0.0"/>
  </jobstep><!--
  --><jobstep command="POP" commandset="POP">
   <!--


 PROGRAM * POP (Mulliken population analysis)


 Density matrix read from record         4202.2  Type=RHF/CHARGE (state 1.2)

 Population analysis by basis function type

 Unique atom        s        p        d        f        g    Total    Charge
   1  IR      2.99822  6.99993  5.00171  0.00007  0.00006 15.00000  + 2.00000


 **********************************************************************************************************************************
 DATASETS  * FILE   NREC   LENGTH (MB)   RECORD NAMES
              1      19       20.98       500      610      700      900      950      970     1000      129      960     1100
                                          VAR    BASINP    GEOM    SYMINP    ZMAT    AOBASIS   BASIS     P2S    ABASIS      S
                                         1400     1410     1420     1200     1210     1080     1600     1650     1700
                                           T        V       ECP      H0       H01     AOSYM     SMH    MOLCAS    OPER

              2       5        6.03       200      700     1000      520     4202
                                        OPTIONS   GEOM     BASIS   MCVARS     RHF

 PROGRAMS   *        TOTAL       POP       RHF       INT
 CPU TIMES  *       141.28      0.01     10.84    129.91
 REAL TIME  *       148.42 SEC
 DISK USED  *         5.45 GB
 SF USED    *         0.09 MB
 GA USED    *         0.00 MB       (max)       0.00 MB       (current)
 **********************************************************************************************************************************
   -->
   <time start="19:21:57" end="19:21:57" cpu="0.01" system="0.0" real="0.01"/>
   <storage units="megabyte" memory="8193.84" sf="0.09" df="333.85" eaf="5113.94" ga="0.0"/>
  </jobstep><!--
  --><jobstep command="MULTI" commandset="MULTI">
   <!--


 PROGRAM * MULTI (Direct Multiconfiguration SCF)       Authors: P.J. Knowles, H.-J. Werner (1984)     S.T. Elbert (1988)


 Number of frozen core orbitals:    4 (   1   1   1   0   1   0   0   0 )
 Number of active  orbitals:        9 (   3   1   1   1   1   1   1   0 )
 Number of external orbitals:     362 (  86  60  60  27  60  27  27  15 )

 State symmetry 1

 Number of electrons:     7    Spin symmetry=Octet     Space symmetry=2
 Number of states:        1
 Number of CSFs:          5   (5 determinants, 36 intermediate states)

 State symmetry 2

 Number of electrons:     7    Spin symmetry=Octet     Space symmetry=3
 Number of states:        1
 Number of CSFs:          5   (5 determinants, 36 intermediate states)

 State symmetry 3

 Number of electrons:     7    Spin symmetry=Octet     Space symmetry=5
 Number of states:        1
 Number of CSFs:          5   (5 determinants, 36 intermediate states)

 ?Warning: RHF not converged

 Iteration controls:
             1  2  3  4  5  6  7  8  9 10 11 12 13 14 15 16 17 18 19 20 21 22 23 24 25 26 27 28 29 30 31 32 33 34 35 36 37 38 39
 DIAGCI      T  T  T  T  T  T  T  T  T  T  T  T  T  T  T  T  T  T  T  T  T  T  T  T  T  T  T  T  T  T  T  T  T  T  T  T  T  T  T
 WERNER      T  T  T  T  T  T  T  T  T  T  T  T  T  T  T  T  T  T  T  T  T  T  T  T  T  T  T  T  T  T  T  T  T  T  T  T  T  T  T
 INTERNAL    F  T  T  T  T  T  T  T  T  T  T  T  T  T  T  T  T  T  T  T  T  T  T  T  T  T  T  T  T  T  T  T  T  T  T  T  T  T  T

 Valence orbitals read from record       4202.2  Type=RHF/CANONICAL (state 1.2)
 Frozen core orbitals read from record   4202.2  Type=RHF/CANONICAL (state 1.2)
 *** IN SYMMETRY 1 ORBITAL  1 SYMMETRY CONTAMINATION OF 0.124D-02 HAS BEEN REMOVED
 *** IN SYMMETRY 1 ORBITAL  2 SYMMETRY CONTAMINATION OF 0.481D+00 HAS BEEN REMOVED
 *** IN SYMMETRY 1 ORBITAL  3 SYMMETRY CONTAMINATION OF 0.370D+00 HAS BEEN REMOVED
 *** IN SYMMETRY 1 ORBITAL  4 SYMMETRY CONTAMINATION OF 0.347D-01 HAS BEEN REMOVED

 EXTRA SYMMETRY OF MOS IN SYMMETRY 1:   0 3 2 1 1 2 3 1 3 2   1 2 3 1 4 5 5 2 3 1   4 6 6 2 3 1 4 5 6 2   3 1 2 3 1 2 3 2 3 1
                                        2 3 1 2 3 1 2 3 1 2   3 1 2 3 1 2 3 1 3 2   1 1 2 3 1 2 3 1 1 2   3 1 2 3 1 1 3 2 1 1
                                        1 1 1 1 1 1 1 1 1 1
 *** IN SYMMETRY 2 ORBITAL  1 SYMMETRY CONTAMINATION OF 0.139D-02 HAS BEEN REMOVED
 *** IN SYMMETRY 2 ORBITAL  2 SYMMETRY CONTAMINATION OF 0.456D-02 HAS BEEN REMOVED
 EXTRA SYMMETRY OF MOS IN SYMMETRY 2:   0 1 1 2 3 1 2 3 1 2   3 1 2 3 1 2 3 2 3 1   2 3 1 2 3 1 1 2 3 1   2 3 1 2 3 1 1 2 3 1
                                        2 3 1 2 3 1 1 2 3 1   1 1 1 1 1 1 1 1 1 1   1 1
 *** IN SYMMETRY 3 ORBITAL  1 SYMMETRY CONTAMINATION OF 0.101D-02 HAS BEEN REMOVED
 *** IN SYMMETRY 3 ORBITAL  2 SYMMETRY CONTAMINATION OF 0.593D-02 HAS BEEN REMOVED
 EXTRA SYMMETRY OF MOS IN SYMMETRY 3:   0 1 1 2 3 1 2 3 1 2   3 1 2 3 1 2 3 2 3 1   2 3 1 2 3 1 1 2 3 1   2 3 1 2 3 1 1 2 3 1
                                        2 3 1 2 3 1 1 2 3 1   1 1 1 1 1 1 1 1 1 1   1 1
 *** IN SYMMETRY 4 ORBITAL  1 SYMMETRY CONTAMINATION OF 0.918D-02 HAS BEEN REMOVED
 EXTRA SYMMETRY OF MOS IN SYMMETRY 4:   1 1 1 1 2 3 1 2 3 1   2 3 1 1 1 1 1 1 1 1   1 1 1 1 1 1 1 1
 *** IN SYMMETRY 5 ORBITAL  1 SYMMETRY CONTAMINATION OF 0.116D-02 HAS BEEN REMOVED
 *** IN SYMMETRY 5 ORBITAL  2 SYMMETRY CONTAMINATION OF 0.682D-02 HAS BEEN REMOVED
 EXTRA SYMMETRY OF MOS IN SYMMETRY 5:   0 1 1 2 3 1 2 3 1 2   3 1 2 3 1 2 3 2 3 1   2 3 1 2 3 1 1 2 3 1   2 3 1 2 3 1 1 2 3 1
                                        2 3 1 2 3 1 1 2 3 1   1 1 1 1 1 1 1 1 1 1   1 1
 *** IN SYMMETRY 6 ORBITAL  1 SYMMETRY CONTAMINATION OF 0.100D-01 HAS BEEN REMOVED
 EXTRA SYMMETRY OF MOS IN SYMMETRY 6:   1 1 1 1 3 2 1 3 2 1   3 2 1 1 1 1 1 1 1 1   1 1 1 1 1 1 1 1
 *** IN SYMMETRY 7 ORBITAL  1 SYMMETRY CONTAMINATION OF 0.653D-02 HAS BEEN REMOVED
 EXTRA SYMMETRY OF MOS IN SYMMETRY 7:   1 1 1 1 2 3 1 2 3 1   2 3 1 1 1 1 1 1 1 1   1 1 1 1 1 1 1 1

 Wavefunction dump at record             4203.2

 Convergence thresholds  0.10E-01 (gradient)  0.10E-05 (energy)  0.10E-02 (step length)

 Weight factors for state symmetry  1:    0.33333
 Weight factors for state symmetry  2:    0.33333
 Weight factors for state symmetry  3:    0.33333

 Number of orbital rotations:      519   (     0 Core/Active      0 Core/Virtual   0 Active/Active    519 Active/Virtual)
 Total number of variables:        534


 ITER. MIC  NCI  NEG     ENERGY(VAR)     ENERGY(PROJ)   ENERGY CHANGE     GRAD(0)  GRAD(ORB)   GRAD(CI)     STEP       TIME

   1   24   12    0    -102.77187025    -102.77517098   -0.00330074    0.02954679 0.00000000 0.00000000  0.14D+00      0.76
   2   13   12    0    -102.77516980    -102.77516986   -0.00000006    0.00033594 0.00000000 0.00000000  0.21D-03      1.32
   3   14   12    0    -102.77516986    -102.77516986   -0.00000000    0.00000001 0.00000000 0.00000000  0.75D-08      1.95

 ** WVFN ****  CONVERGENCE REACHED, FINAL GRADIENT:  0.11D-09



 Results for state 1.2
 =====================

 !MCSCF STATE 1.2 Energy             -102.775988208036
   --><property name="Energy" method="MCSCF" principal="true" stateSymmetry="2" stateNumber="1"
     value="-102.775988208036"/><!--
 Nuclear energy                         0.00000000
 Kinetic energy                        31.77480211
 One electron energy                 -165.65330676
 Two electron energy                   62.87731856
 Virial ratio                           4.23451230

 !MCSCF STATE 1.2 Dipole moment         0.00000000     0.00000000     0.00000000
 Dipole moment /Debye                   0.00000000     0.00000000     0.00000000
   --><property name="Dipole moment" method="MCSCF" principal="true" stateSymmetry="2"
     stateNumber="1" value="0.0 0.0 0.0"/><!--



 Results for state 1.3
 =====================

 !MCSCF STATE 1.3 Energy             -102.774760716578
   --><property name="Energy" method="MCSCF" principal="true" stateSymmetry="3" stateNumber="1"
     value="-102.774760716578"/><!--
 Nuclear energy                         0.00000000
 Kinetic energy                        31.79350544
 One electron energy                 -165.66712774
 Two electron energy                   62.89236702
 Virial ratio                           4.23257091

 !MCSCF STATE 1.3 Dipole moment         0.00000000     0.00000000     0.00000000
 Dipole moment /Debye                   0.00000000     0.00000000     0.00000000
   --><property name="Dipole moment" method="MCSCF" principal="true" stateSymmetry="3"
     stateNumber="1" value="0.0 0.0 0.0"/><!--



 Results for state 1.5
 =====================

 !MCSCF STATE 1.5 Energy             -102.774760647484
   --><property name="Energy" method="MCSCF" principal="true" stateSymmetry="5" stateNumber="1"
     value="-102.774760647484"/><!--
 Nuclear energy                         0.00000000
 Kinetic energy                        31.79350548
 One electron energy                 -165.66712773
 Two electron energy                   62.89236708
 Virial ratio                           4.23257090

 !MCSCF STATE 1.5 Dipole moment         0.00000000     0.00000000     0.00000000
 Dipole moment /Debye                   0.00000000     0.00000000     0.00000000
   --><property name="Dipole moment" method="MCSCF" principal="true" stateSymmetry="5"
     stateNumber="1" value="0.0 0.0 0.0"/><!--

 State-averaged charge density matrix saved on record  4203.2 (density set 1)


 NATURAL ORBITALS (state averaged)
 =================================

   Orb     Occ        Energy       Coefficients

                                   1 1s      1 1s      1 1s      1 1s      1 1s      1 1s      1 1s      1 1s      1 1s      1 1s
                                   1 1s      1 1s      1 1s      1 1s      1 1s      1 1s      1 1s      1 1s      1 1s      1 1s
                                   1 1s      1 1s      1 1s      1 1s      1 1s      1 1s      1 1s      1 1s      1 1s      1 1s
                                   1 1s      1 1s      1 1s      1 1s      1 1s      1 1s      1 1s      1 3d0     1 3d2+    1 3d0
                                   1 3d2+    1 3d0     1 3d2+    1 3d0     1 3d2+    1 3d0     1 3d2+    1 3d0     1 3d2+    1 3d0
                                   1 3d2+    1 3d0     1 3d2+    1 3d0     1 3d2+    1 3d0     1 3d2+    1 3d0     1 3d2+    1 3d0
                                   1 3d2+    1 3d0     1 3d2+    1 3d0     1 3d2+    1 3d0     1 3d2+    1 3d0     1 3d2+    1 3d0
                                   1 3d2+    1 3d0     1 3d2+    1 3d0     1 3d2+    1 3d0     1 3d2+    1 3d0     1 3d2+    1 3d0
                                   1 3d2+    1 5g0     1 5g4+    1 5g2+    1 5g0     1 5g4+    1 5g2+    1 5g0     1 5g4+    1 5g2+


   2.1  1.00000    -0.846727    -0.000000  0.000000 -0.000000  0.000000 -0.000000  0.000000 -0.000000  0.000000 -0.000000  0.000000
                                -0.000000  0.000001 -0.000002  0.000007 -0.000019  0.000071 -0.000537  0.001165 -0.001143  0.001167
                                -0.002274  0.005611 -0.018958  0.122438 -0.326442  0.346731 -0.306974  0.395599  0.207863 -0.152204
                                -0.476089 -0.351869 -0.249916  0.934711  0.431532 -0.025689  0.007131  0.000000  0.000000  0.000000
                                 0.000000  0.000000  0.000000  0.000000  0.000000  0.000000  0.000000  0.000000  0.000000  0.000000
                                 0.000000  0.000000  0.000000  0.000000  0.000000  0.000000  0.000000  0.000000  0.000000  0.000000
                                 0.000000  0.000000  0.000000  0.000000  0.000000  0.000000  0.000000  0.000000  0.000000  0.000000
                                 0.000000  0.000000  0.000000  0.000000  0.000000  0.000000  0.000000  0.000000  0.000000  0.000000
                                 0.000000  0.000000  0.000000  0.000000  0.000000  0.000000  0.000000  0.000000  0.000000  0.000000

   3.1  0.99995    -1.061130     0.000000  0.000000  0.000000  0.000000  0.000000  0.000000  0.000000  0.000000  0.000000  0.000000
                                 0.000000  0.000000  0.000000  0.000000  0.000000  0.000000  0.000000  0.000000  0.000000  0.000000
                                 0.000000  0.000000  0.000000  0.000000  0.000000  0.000000  0.000000  0.000000  0.000000  0.000000
                                 0.000000  0.000000  0.000000  0.000000  0.000000  0.000000  0.000000  0.000000  0.000000 -0.000000
                                 0.000000  0.000000  0.000000 -0.000001  0.000000  0.000002  0.000000 -0.000007  0.000000  0.000022
                                 0.000000 -0.000074  0.000000  0.000200  0.000000 -0.000832  0.000000  0.000737  0.000000 -0.002903
                                 0.000000 -0.078975  0.000000  0.141443  0.000000 -0.149843  0.000000  0.059053  0.000000  0.284151
                                 0.000000 -0.002462  0.000000  0.463920  0.000000  0.338842  0.000000  0.074477  0.000000 -0.000814
                                 0.000000  0.000000  0.000000  0.000000  0.000000  0.000000  0.000000  0.000000  0.000000  0.000000

   4.1  0.99994    -1.060882     0.000000  0.000000  0.000000  0.000000  0.000000  0.000000  0.000000  0.000000  0.000000  0.000000
                                 0.000000  0.000000  0.000000  0.000000  0.000000  0.000000  0.000000  0.000000  0.000000  0.000000
                                 0.000000  0.000000  0.000000  0.000000  0.000000  0.000000  0.000000  0.000000  0.000000  0.000000
                                 0.000000  0.000000  0.000000  0.000000  0.000000  0.000000  0.000000  0.000000  0.000000  0.000000
                                -0.000000  0.000000  0.000000  0.000000 -0.000001  0.000000  0.000002  0.000000 -0.000007  0.000000
                                 0.000022  0.000000 -0.000074  0.000000  0.000200  0.000000 -0.000832  0.000000  0.000737  0.000000
                                -0.002903  0.000000 -0.078981  0.000000  0.141451  0.000000 -0.149857  0.000000  0.059078  0.000000
                                 0.284144  0.000000 -0.002434  0.000000  0.463885  0.000000  0.338850  0.000000  0.074477  0.000000
                                -0.000817  0.000000  0.000000  0.000000  0.000000  0.000000  0.000000  0.000000  0.000000  0.000000

                                   1 2px     1 2px     1 2px     1 2px     1 2px     1 2px     1 2px     1 2px     1 2px     1 2px
                                   1 2px     1 2px     1 2px     1 2px     1 2px     1 2px     1 2px     1 2px     1 2px     1 2px
                                   1 2px     1 2px     1 2px     1 2px     1 2px     1 2px     1 2px     1 2px     1 2px     1 2px
                                   1 2px     1 2px     1 4f1+    1 4f3+    1 4f1+    1 4f3+    1 4f1+    1 4f3+    1 4f1+    1 4f3+
                                   1 4f1+    1 4f3+    1 4f1+    1 4f3+    1 4f1+    1 4f3+    1 4f1+    1 4f3+    1 4f1+    1 4f3+
                                   1 4f1+    1 4f3+    1 4f1+    1 4f3+    1 4f1+    1 4f3+    1 4f1+    1 4f3+    1 4f1+    1 4f3+
                                   1 4f1+    1 4f3+

   2.2  0.33343    -0.465731    -0.000000  0.000000 -0.000000  0.000000 -0.000000  0.000000 -0.000000  0.000000 -0.000000  0.000001
                                -0.000002  0.000009 -0.000059  0.000217 -0.000242  0.000170 -0.000223  0.000372  0.000029 -0.001388
                                 0.024149 -0.229735  0.327209  0.011679 -0.086447 -0.091376 -0.412333  0.077385 -0.111320  0.746861
                                 0.420550 -0.011028  0.000000  0.000000  0.000000  0.000000  0.000000  0.000000  0.000000  0.000000
                                 0.000000  0.000000  0.000000  0.000000  0.000000  0.000000  0.000000  0.000000  0.000000  0.000000
                                 0.000000  0.000000  0.000000  0.000000  0.000000  0.000000  0.000000  0.000000  0.000000  0.000000
                                 0.000000  0.000000

                                   1 2py     1 2py     1 2py     1 2py     1 2py     1 2py     1 2py     1 2py     1 2py     1 2py
                                   1 2py     1 2py     1 2py     1 2py     1 2py     1 2py     1 2py     1 2py     1 2py     1 2py
                                   1 2py     1 2py     1 2py     1 2py     1 2py     1 2py     1 2py     1 2py     1 2py     1 2py
                                   1 2py     1 2py     1 4f1-    1 4f3-    1 4f1-    1 4f3-    1 4f1-    1 4f3-    1 4f1-    1 4f3-
                                   1 4f1-    1 4f3-    1 4f1-    1 4f3-    1 4f1-    1 4f3-    1 4f1-    1 4f3-    1 4f1-    1 4f3-
                                   1 4f1-    1 4f3-    1 4f1-    1 4f3-    1 4f1-    1 4f3-    1 4f1-    1 4f3-    1 4f1-    1 4f3-
                                   1 4f1-    1 4f3-

   2.3  0.33342    -0.465078    -0.000000  0.000000 -0.000000  0.000000 -0.000000  0.000000 -0.000000  0.000000 -0.000000  0.000001
                                -0.000002  0.000009 -0.000059  0.000215 -0.000239  0.000167 -0.000217  0.000360  0.000077 -0.001546
                                 0.025125 -0.237612  0.338011  0.009429 -0.084994 -0.095400 -0.419060  0.078329 -0.115687  0.745907
                                 0.421822 -0.010949  0.000000  0.000000  0.000000  0.000000  0.000000  0.000000  0.000000  0.000000
                                 0.000000  0.000000  0.000000  0.000000  0.000000  0.000000  0.000000  0.000000  0.000000  0.000000
                                 0.000000  0.000000  0.000000  0.000000  0.000000  0.000000  0.000000  0.000000  0.000000  0.000000
                                 0.000000  0.000000

                                   1 3d2-    1 3d2-    1 3d2-    1 3d2-    1 3d2-    1 3d2-    1 3d2-    1 3d2-    1 3d2-    1 3d2-
                                   1 3d2-    1 3d2-    1 3d2-    1 3d2-    1 3d2-    1 3d2-    1 3d2-    1 3d2-    1 3d2-    1 3d2-
                                   1 3d2-    1 3d2-    1 5g2-    1 5g4-    1 5g2-    1 5g4-    1 5g2-    1 5g4-

   1.4  0.99994    -1.060882     0.000000 -0.000000  0.000000 -0.000001  0.000002 -0.000007  0.000022 -0.000074  0.000200 -0.000832
                                 0.000737 -0.002903 -0.078981  0.141451 -0.149857  0.059078  0.284144 -0.002434  0.463885  0.338850
                                 0.074477 -0.000817  0.000000  0.000000  0.000000  0.000000  0.000000  0.000000

                                   1 2pz     1 2pz     1 2pz     1 2pz     1 2pz     1 2pz     1 2pz     1 2pz     1 2pz     1 2pz
                                   1 2pz     1 2pz     1 2pz     1 2pz     1 2pz     1 2pz     1 2pz     1 2pz     1 2pz     1 2pz
                                   1 2pz     1 2pz     1 2pz     1 2pz     1 2pz     1 2pz     1 2pz     1 2pz     1 2pz     1 2pz
                                   1 2pz     1 2pz     1 4f0     1 4f2+    1 4f0     1 4f2+    1 4f0     1 4f2+    1 4f0     1 4f2+
                                   1 4f0     1 4f2+    1 4f0     1 4f2+    1 4f0     1 4f2+    1 4f0     1 4f2+    1 4f0     1 4f2+
                                   1 4f0     1 4f2+    1 4f0     1 4f2+    1 4f0     1 4f2+    1 4f0     1 4f2+    1 4f0     1 4f2+
                                   1 4f0     1 4f2+

   2.5  0.33342    -0.465078    -0.000000  0.000000 -0.000000  0.000000 -0.000000  0.000000 -0.000000  0.000000 -0.000000  0.000001
                                -0.000002  0.000009 -0.000059  0.000215 -0.000239  0.000167 -0.000217  0.000360  0.000077 -0.001546
                                 0.025125 -0.237612  0.338011  0.009429 -0.084994 -0.095400 -0.419060  0.078330 -0.115687  0.745907
                                 0.421822 -0.010949  0.000000  0.000000  0.000000  0.000000  0.000000  0.000000  0.000000  0.000000
                                 0.000000  0.000000  0.000000  0.000000  0.000000  0.000000  0.000000  0.000000  0.000000  0.000000
                                 0.000000  0.000000  0.000000  0.000000  0.000000  0.000000  0.000000  0.000000  0.000000  0.000000
                                 0.000000  0.000000

                                   1 3d1+    1 3d1+    1 3d1+    1 3d1+    1 3d1+    1 3d1+    1 3d1+    1 3d1+    1 3d1+    1 3d1+
                                   1 3d1+    1 3d1+    1 3d1+    1 3d1+    1 3d1+    1 3d1+    1 3d1+    1 3d1+    1 3d1+    1 3d1+
                                   1 3d1+    1 3d1+    1 5g1+    1 5g3+    1 5g1+    1 5g3+    1 5g1+    1 5g3+

   1.6  0.99994    -1.060882     0.000000 -0.000000  0.000000 -0.000001  0.000002 -0.000007  0.000022 -0.000074  0.000200 -0.000832
                                 0.000737 -0.002903 -0.078981  0.141451 -0.149857  0.059078  0.284144 -0.002434  0.463885  0.338849
                                 0.074477 -0.000817  0.000000  0.000000  0.000000  0.000000  0.000000  0.000000

                                   1 3d1-    1 3d1-    1 3d1-    1 3d1-    1 3d1-    1 3d1-    1 3d1-    1 3d1-    1 3d1-    1 3d1-
                                   1 3d1-    1 3d1-    1 3d1-    1 3d1-    1 3d1-    1 3d1-    1 3d1-    1 3d1-    1 3d1-    1 3d1-
                                   1 3d1-    1 3d1-    1 5g1-    1 5g3-    1 5g1-    1 5g3-    1 5g1-    1 5g3-

   1.7  0.99995    -1.061254     0.000000 -0.000000  0.000000 -0.000001  0.000002 -0.000007  0.000022 -0.000074  0.000200 -0.000832
                                 0.000737 -0.002904 -0.078972  0.141439 -0.149836  0.059040  0.284154 -0.002475  0.463937  0.338839
                                 0.074476 -0.000812  0.000000  0.000000  0.000000  0.000000  0.000000  0.000000

 Total charge:   2.000000000000


 EXTRA SYMMETRY OF MOS IN SYMMETRY 1:   0 1 2 3 1 2 3 1 3 2   1 3 2 1 5 4 6 3 2 1   4 6 5 3 2 1 6 4 5 2   3 1 2 3 1 2 3 2 3 1
                                        2 3 1 2 3 1 2 3 1 2   3 1 2 3 1 2 3 1 2 3   1 1 2 3 1 2 3 1 1 2   3 1 2 3 1 1 2 3 1 1
                                        1 1 1 1 1 1 1 1 1 1
 EXTRA SYMMETRY OF MOS IN SYMMETRY 2:   0 1 1 3 2 1 3 2 1 3   2 1 3 2 1 3 2 2 3 1   2 3 1 2 3 1 1 2 3 1   2 3 1 2 3 1 1 2 3 1
                                        2 3 1 2 3 1 1 2 3 1   1 1 1 1 1 1 1 1 1 1   1 1
 EXTRA SYMMETRY OF MOS IN SYMMETRY 3:   0 1 1 3 2 1 3 2 1 3   2 1 3 2 1 3 2 2 3 1   2 3 1 2 3 1 1 2 3 1   2 3 1 2 3 1 1 2 3 1
                                        2 3 1 2 3 1 1 2 3 1   1 1 1 1 1 1 1 1 1 1   1 1
 EXTRA SYMMETRY OF MOS IN SYMMETRY 4:   1 1 1 1 3 2 1 2 3 1   2 3 1 1 1 1 1 1 1 1   1 1 1 1 1 1 1 1
 EXTRA SYMMETRY OF MOS IN SYMMETRY 5:   0 1 1 3 2 1 3 2 1 3   2 1 3 2 1 3 2 2 3 1   2 3 1 2 3 1 1 2 3 1   2 3 1 2 3 1 1 2 3 1
                                        2 3 1 2 3 1 1 2 3 1   1 1 1 1 1 1 1 1 1 1   1 1
 EXTRA SYMMETRY OF MOS IN SYMMETRY 6:   1 1 1 1 2 3 1 3 2 1   3 2 1 1 1 1 1 1 1 1   1 1 1 1 1 1 1 1
 EXTRA SYMMETRY OF MOS IN SYMMETRY 7:   1 1 1 1 3 2 1 2 3 1   2 3 1 1 1 1 1 1 1 1   1 1 1 1 1 1 1 1

 Natural orbital dump (state averaged) at molpro section  4203.2    (Orbital set 2)


 CI vector for state symmetry 1
 ==============================

 aaa a 0 a 0 a a       0.9999327

 TOTAL ENERGIES                      -102.77598821

 CI vector for state symmetry 2
 ==============================

 aaa 0 a a 0 a a       0.9999308

 TOTAL ENERGIES                      -102.77476072

 CI vector for state symmetry 3
 ==============================

 aaa 0 0 a a a a       0.9999308

 TOTAL ENERGIES                      -102.77476065



 **********************************************************************************************************************************
 DATASETS  * FILE   NREC   LENGTH (MB)   RECORD NAMES
              1      20       31.34       500      610      700      900      950      970     1000      129      960     1100
                                          VAR    BASINP    GEOM    SYMINP    ZMAT    AOBASIS   BASIS     P2S    ABASIS      S
                                         1400     1410     1420     1200     1210     1080     1600     1650     1700     1380
                                           T        V       ECP      H0       H01     AOSYM     SMH    MOLCAS    OPER     JKOP

              2       6        9.33       200      700     1000      520     4202     4203
                                        OPTIONS   GEOM     BASIS   MCVARS     RHF     MCSCF

 PROGRAMS   *        TOTAL     MULTI       POP       RHF       INT
 CPU TIMES  *       143.83      2.55      0.01     10.84    129.91
 REAL TIME  *       151.22 SEC
 DISK USED  *         5.45 GB
 SF USED    *        43.58 MB
 GA USED    *         0.00 MB       (max)       0.00 MB       (current)
 **********************************************************************************************************************************
   -->
   <time start="19:21:57" end="19:22:00" cpu="2.55" system="0.2" real="2.8"/>
   <storage units="megabyte" memory="8193.84" sf="43.58" df="333.85" eaf="5113.94" ga="0.0"/>
  </jobstep><!--
  --><jobstep command="MULTI" commandset="MULTI">
   <!--


 PROGRAM * MULTI (Direct Multiconfiguration SCF)       Authors: P.J. Knowles, H.-J. Werner (1984)     S.T. Elbert (1988)


 Number of closed-shell orbitals:   4 (   1   1   1   0   1   0   0   0 )
 Number of active  orbitals:        9 (   3   1   1   1   1   1   1   0 )
 Number of external orbitals:     362 (  86  60  60  27  60  27  27  15 )

 State symmetry 1

 Number of electrons:     7    Spin symmetry=Octet     Space symmetry=2
 Number of states:        1
 Number of CSFs:          5   (5 determinants, 36 intermediate states)

 State symmetry 2

 Number of electrons:     7    Spin symmetry=Octet     Space symmetry=3
 Number of states:        1
 Number of CSFs:          5   (5 determinants, 36 intermediate states)

 State symmetry 3

 Number of electrons:     7    Spin symmetry=Octet     Space symmetry=5
 Number of states:        1
 Number of CSFs:          5   (5 determinants, 36 intermediate states)

 Iteration controls:
             1  2  3  4  5  6  7  8  9 10 11 12 13 14 15 16 17 18 19 20 21 22 23 24 25 26 27 28 29 30 31 32 33 34 35 36 37 38 39
 DIAGCI      T  T  T  T  T  T  T  T  T  T  T  T  T  T  T  T  T  T  T  T  T  T  T  T  T  T  T  T  T  T  T  T  T  T  T  T  T  T  T
 WERNER      T  T  T  T  T  T  T  T  T  T  T  T  T  T  T  T  T  T  T  T  T  T  T  T  T  T  T  T  T  T  T  T  T  T  T  T  T  T  T
 INTERNAL    F  T  T  T  T  T  T  T  T  T  T  T  T  T  T  T  T  T  T  T  T  T  T  T  T  T  T  T  T  T  T  T  T  T  T  T  T  T  T

 Molecular orbitals read from record     4203.2  Type=MCSCF/NATURAL (state averaged)

 EXTRA SYMMETRY OF MOS IN SYMMETRY 1:   1 1 2 3 1 2 3 1 3 2   1 3 2 1 5 4 6 3 2 1   4 6 5 3 2 1 6 4 5 2   3 1 2 3 1 2 3 2 3 1
                                        2 3 1 2 3 1 2 3 1 2   3 1 2 3 1 2 3 1 2 3   1 1 2 3 1 2 3 1 1 2   3 1 2 3 1 1 2 3 1 1
                                        1 1 1 1 1 1 1 1 1 1
 EXTRA SYMMETRY OF MOS IN SYMMETRY 2:   1 1 1 3 2 1 3 2 1 3   2 1 3 2 1 3 2 2 3 1   2 3 1 2 3 1 1 2 3 1   2 3 1 2 3 1 1 2 3 1
                                        2 3 1 2 3 1 1 2 3 1   1 1 1 1 1 1 1 1 1 1   1 1
 EXTRA SYMMETRY OF MOS IN SYMMETRY 3:   1 1 1 3 2 1 3 2 1 3   2 1 3 2 1 3 2 2 3 1   2 3 1 2 3 1 1 2 3 1   2 3 1 2 3 1 1 2 3 1
                                        2 3 1 2 3 1 1 2 3 1   1 1 1 1 1 1 1 1 1 1   1 1
 EXTRA SYMMETRY OF MOS IN SYMMETRY 4:   1 1 1 1 3 2 1 2 3 1   2 3 1 1 1 1 1 1 1 1   1 1 1 1 1 1 1 1
 EXTRA SYMMETRY OF MOS IN SYMMETRY 5:   1 1 1 3 2 1 3 2 1 3   2 1 3 2 1 3 2 2 3 1   2 3 1 2 3 1 1 2 3 1   2 3 1 2 3 1 1 2 3 1
                                        2 3 1 2 3 1 1 2 3 1   1 1 1 1 1 1 1 1 1 1   1 1
 EXTRA SYMMETRY OF MOS IN SYMMETRY 6:   1 1 1 1 2 3 1 3 2 1   3 2 1 1 1 1 1 1 1 1   1 1 1 1 1 1 1 1
 EXTRA SYMMETRY OF MOS IN SYMMETRY 7:   1 1 1 1 3 2 1 2 3 1   2 3 1 1 1 1 1 1 1 1   1 1 1 1 1 1 1 1

 Wavefunction dump at record             5202.2

 Convergence thresholds  0.10E-01 (gradient)  0.10E-05 (energy)  0.10E-02 (step length)

 Weight factors for state symmetry  1:    0.33333
 Weight factors for state symmetry  2:    0.33333
 Weight factors for state symmetry  3:    0.33333

 Number of orbital rotations:      791   (     6 Core/Active    266 Core/Virtual   0 Active/Active    519 Active/Virtual)
 Total number of variables:        806


 ITER. MIC  NCI  NEG     ENERGY(VAR)     ENERGY(PROJ)   ENERGY CHANGE     GRAD(0)  GRAD(ORB)   GRAD(CI)     STEP       TIME

   1   15   21    0    -102.77516986    -102.77566968   -0.00049983    0.04982948 0.00000000 0.00000000  0.33D-02      0.98
   2   14   15    0    -102.77566968    -102.77566968   -0.00000000    0.00000593 0.00000000 0.00000000  0.48D-05      1.83

 ** WVFN ****  CONVERGENCE REACHED, FINAL GRADIENT:  0.39D-09



 Results for state 1.2
 =====================

 !MCSCF STATE 1.2 Energy             -102.775669675725
   --><property name="Energy" method="MCSCF" principal="true" stateSymmetry="2" stateNumber="1"
     value="-102.775669675725"/><!--
 Nuclear energy                         0.00000000
 Kinetic energy                        31.77721501
 One electron energy                 -165.65554760
 Two electron energy                   62.87987792
 Virial ratio                           4.23425667

 !MCSCF STATE 1.2 Dipole moment         0.00000000     0.00000000     0.00000000
 Dipole moment /Debye                   0.00000000     0.00000000     0.00000000
   --><property name="Dipole moment" method="MCSCF" principal="true" stateSymmetry="2"
     stateNumber="1" value="0.0 0.0 0.0"/><!--



 Results for state 1.3
 =====================

 !MCSCF STATE 1.3 Energy             -102.775669675725
   --><property name="Energy" method="MCSCF" principal="true" stateSymmetry="3" stateNumber="1"
     value="-102.775669675725"/><!--
 Nuclear energy                         0.00000000
 Kinetic energy                        31.77721501
 One electron energy                 -165.65554760
 Two electron energy                   62.87987792
 Virial ratio                           4.23425667

 !MCSCF STATE 1.3 Dipole moment         0.00000000     0.00000000     0.00000000
 Dipole moment /Debye                   0.00000000     0.00000000     0.00000000
   --><property name="Dipole moment" method="MCSCF" principal="true" stateSymmetry="3"
     stateNumber="1" value="0.0 0.0 0.0"/><!--



 Results for state 1.5
 =====================

 !MCSCF STATE 1.5 Energy             -102.775669675725
   --><property name="Energy" method="MCSCF" principal="true" stateSymmetry="5" stateNumber="1"
     value="-102.775669675725"/><!--
 Nuclear energy                         0.00000000
 Kinetic energy                        31.77721501
 One electron energy                 -165.65554760
 Two electron energy                   62.87987792
 Virial ratio                           4.23425667

[...]
                                 0.000000  0.000000  0.000000  0.000000  0.000000  0.000000  0.000000  0.000000  0.000000  0.000000
                                 0.000000  0.000000  0.000000  0.000000  0.000000  0.000000  0.000000  0.000000  0.000000  0.000000
                                 0.000000  0.000000  0.000000  0.000000  0.000000  0.000000  0.000000  0.000000  0.000000  0.000000
                                -0.000000  0.000000  0.000000  0.000000 -0.000000  0.000000  0.000002  0.000000 -0.000007  0.000000
                                 0.000020  0.000000 -0.000067  0.000000  0.000183  0.000000 -0.000786  0.000000  0.000617  0.000000
                                -0.002260  0.000000 -0.081403  0.000000  0.144825  0.000000 -0.153398  0.000000  0.062977  0.000000
                                 0.277484  0.000000 -0.005413  0.000000  0.460557  0.000000  0.352272  0.000000  0.072373  0.000000
                                -0.002025  0.000000  0.000000  0.000000  0.000000  0.000000  0.000000  0.000000  0.000000  0.000000

                                   1 3d2-    1 3d2-    1 3d2-    1 3d2-    1 3d2-    1 3d2-    1 3d2-    1 3d2-    1 3d2-    1 3d2-
                                   1 3d2-    1 3d2-    1 3d2-    1 3d2-    1 3d2-    1 3d2-    1 3d2-    1 3d2-    1 3d2-    1 3d2-
                                   1 3d2-    1 3d2-    1 5g2-    1 5g4-    1 5g2-    1 5g4-    1 5g2-    1 5g4-

   1.4  1.20000    -1.346615     0.000000 -0.000000  0.000000 -0.000000  0.000002 -0.000007  0.000020 -0.000067  0.000183 -0.000786
                                 0.000617 -0.002260 -0.081403  0.144825 -0.153398  0.062977  0.277484 -0.005413  0.460557  0.352272
                                 0.072373 -0.002025  0.000000  0.000000  0.000000  0.000000  0.000000  0.000000

                                   1 3d1+    1 3d1+    1 3d1+    1 3d1+    1 3d1+    1 3d1+    1 3d1+    1 3d1+    1 3d1+    1 3d1+
                                   1 3d1+    1 3d1+    1 3d1+    1 3d1+    1 3d1+    1 3d1+    1 3d1+    1 3d1+    1 3d1+    1 3d1+
                                   1 3d1+    1 3d1+    1 5g1+    1 5g3+    1 5g1+    1 5g3+    1 5g1+    1 5g3+

   1.6  1.20000    -1.346517     0.000000 -0.000000  0.000000 -0.000000  0.000002 -0.000007  0.000020 -0.000067  0.000183 -0.000786
                                 0.000617 -0.002261 -0.081404  0.144828 -0.153405  0.062983  0.277493 -0.005394  0.460547  0.352252
                                 0.072375 -0.002024  0.000000  0.000000  0.000000  0.000000  0.000000  0.000000

                                   1 3d1-    1 3d1-    1 3d1-    1 3d1-    1 3d1-    1 3d1-    1 3d1-    1 3d1-    1 3d1-    1 3d1-
                                   1 3d1-    1 3d1-    1 3d1-    1 3d1-    1 3d1-    1 3d1-    1 3d1-    1 3d1-    1 3d1-    1 3d1-
                                   1 3d1-    1 3d1-    1 5g1-    1 5g3-    1 5g1-    1 5g3-    1 5g1-    1 5g3-

   1.7  1.20000    -1.346517     0.000000 -0.000000  0.000000 -0.000000  0.000002 -0.000007  0.000020 -0.000067  0.000183 -0.000786
                                 0.000617 -0.002261 -0.081404  0.144828 -0.153405  0.062983  0.277493 -0.005394  0.460547  0.352252
                                 0.072375 -0.002024  0.000000  0.000000  0.000000  0.000000  0.000000  0.000000

 Total charge:   3.000000000000


 EXTRA SYMMETRY OF MOS IN SYMMETRY 1:   0 2 3 1 1 2 3 1 2 3   1 2 3 1 4 6 5 2 3 1   5 6 4 2 3 1 5 6 4 3   2 1 3 2 1 3 2 3 2 1
                                        3 2 1 3 2 1 3 2 1 3   2 1 3 2 1 3 2 1 3 2   1 1 3 2 1 3 2 1 1 3   2 1 3 2 1 1 3 2 1 1
                                        1 1 1 1 1 1 1 1 1 1
 EXTRA SYMMETRY OF MOS IN SYMMETRY 2:   0 1 1 2 3 1 2 3 1 2   3 1 2 3 1 3 2 3 2 1   3 2 1 3 2 1 1 3 2 1   3 2 1 3 2 1 1 3 2 1
                                        3 2 1 3 2 1 1 3 2 1   1 1 1 1 1 1 1 1 1 1   1 1
 EXTRA SYMMETRY OF MOS IN SYMMETRY 3:   0 1 1 2 3 1 2 3 1 2   3 1 2 3 1 3 2 3 2 1   3 2 1 3 2 1 1 3 2 1   3 2 1 3 2 1 1 3 2 1
                                        3 2 1 3 2 1 1 3 2 1   1 1 1 1 1 1 1 1 1 1   1 1
 EXTRA SYMMETRY OF MOS IN SYMMETRY 4:   1 1 1 1 2 3 1 3 2 1   3 2 1 1 1 1 1 1 1 1   1 1 1 1 1 1 1 1
 EXTRA SYMMETRY OF MOS IN SYMMETRY 5:   0 1 1 2 3 1 2 3 1 2   3 1 2 3 1 3 2 3 2 1   3 2 1 3 2 1 1 3 2 1   3 2 1 3 2 1 1 3 2 1
                                        3 2 1 3 2 1 1 3 2 1   1 1 1 1 1 1 1 1 1 1   1 1
 EXTRA SYMMETRY OF MOS IN SYMMETRY 6:   1 1 1 1 2 3 1 3 2 1   3 2 1 1 1 1 1 1 1 1   1 1 1 1 1 1 1 1
 EXTRA SYMMETRY OF MOS IN SYMMETRY 7:   1 1 1 1 2 3 1 3 2 1   3 2 1 1 1 1 1 1 1 1   1 1 1 1 1 1 1 1

 Natural orbital dump (state averaged) at molpro section  4203.2    (Orbital set 2)


 CI vector for state symmetry 1
 ==============================

 a2 a a a          1.0000000   0.0000028
 2a a a a         -0.0000028   1.0000000

 TOTAL ENERGIES                      -102.10295091  -102.10281887

 CI vector for state symmetry 2
 ==============================

 aa 2 a a          1.0000000

 TOTAL ENERGIES                      -102.10295091

 CI vector for state symmetry 3
 ==============================

 aa a 2 a          1.0000000

 TOTAL ENERGIES                      -102.10285188

 CI vector for state symmetry 4
 ==============================

 aa a a 2          1.0000000

 TOTAL ENERGIES                      -102.10285188



 **********************************************************************************************************************************
 DATASETS  * FILE   NREC   LENGTH (MB)   RECORD NAMES
              1      20       41.60       500      610      700      900      950      970     1000      129      960     1100
                                          VAR    BASINP    GEOM    SYMINP    ZMAT    AOBASIS   BASIS     P2S    ABASIS      S
                                         1400     1410     1420     1200     1210     1080     1600     1650     1700     1380
                                           T        V       ECP      H0       H01     AOSYM     SMH    MOLCAS    OPER     JKOP

              2       9       16.23       200      700     1000      520     4202     4203     5202     2135     4203(1)
                                        OPTIONS   GEOM     BASIS   MCVARS     RHF     MCSCF    MCSCF     RHF     MCSCF

 PROGRAMS   *        TOTAL     MULTI       RHF  RCCSD(T)       RHF     MULTI     MULTI       POP       RHF       INT
 CPU TIMES  *       190.16      2.02      3.57     37.82      0.09      2.73      2.55      0.01     10.84    129.91
 REAL TIME  *       205.78 SEC
 DISK USED  *         7.72 GB
 SF USED    *         1.94 GB
 GA USED    *         0.00 MB       (max)       0.00 MB       (current)
 **********************************************************************************************************************************
   -->
   <time start="19:22:52" end="19:22:55" cpu="2.02" system="0.16" real="2.22"/>
   <storage units="megabyte" memory="8193.84" sf="1935.19" df="2604.1" eaf="5113.94"
     ga="0.0"/>
  </jobstep><!--
  --><jobstep command="POP" commandset="POP">
   <!--


 PROGRAM * POP (Mulliken population analysis)


 Density matrix read from record         4203.2  Type=MCSCF/CHARGE (state averaged)

 Population analysis by basis function type

 Unique atom        s        p        d        f        g    Total    Charge
   1  IR      2.00000  6.00000  6.00000  0.00000  0.00000 14.00000  + 3.00000


 **********************************************************************************************************************************
 DATASETS  * FILE   NREC   LENGTH (MB)   RECORD NAMES
              1      20       41.60       500      610      700      900      950      970     1000      129      960     1100
                                          VAR    BASINP    GEOM    SYMINP    ZMAT    AOBASIS   BASIS     P2S    ABASIS      S
                                         1400     1410     1420     1200     1210     1080     1600     1650     1700     1380
                                           T        V       ECP      H0       H01     AOSYM     SMH    MOLCAS    OPER     JKOP

              2       9       16.23       200      700     1000      520     4202     4203     5202     2135     4203(1)
                                        OPTIONS   GEOM     BASIS   MCVARS     RHF     MCSCF    MCSCF     RHF     MCSCF

 PROGRAMS   *        TOTAL       POP     MULTI       RHF  RCCSD(T)       RHF     MULTI     MULTI       POP       RHF       INT
 CPU TIMES  *       190.17      0.01      2.02      3.57     37.82      0.09      2.73      2.55      0.01     10.84    129.91
 REAL TIME  *       205.79 SEC
 DISK USED  *         7.72 GB
 SF USED    *         1.94 GB
 GA USED    *         0.00 MB       (max)       0.00 MB       (current)
 **********************************************************************************************************************************
   -->
   <time start="19:22:55" end="19:22:55" cpu="0.01" system="0.0" real="0.01"/>
   <storage units="megabyte" memory="8193.84" sf="1935.19" df="2604.1" eaf="5113.94"
     ga="0.0"/>
  </jobstep><!--
  --><jobstep command="MULTI" commandset="MULTI">
   <!--


 PROGRAM * MULTI (Direct Multiconfiguration SCF)       Authors: P.J. Knowles, H.-J. Werner (1984)     S.T. Elbert (1988)


 Number of closed-shell orbitals:   4 (   1   1   1   0   1   0   0   0 )
 Number of active  orbitals:        5 (   2   0   0   1   0   1   1   0 )
 Number of external orbitals:     366 (  87  61  61  27  61  27  27  15 )

 State symmetry 1

 Number of electrons:     6    Spin symmetry=Quintet   Space symmetry=1
 Number of states:        2
 Number of CSFs:          2   (2 determinants, 5 intermediate states)

 State symmetry 2

 Number of electrons:     6    Spin symmetry=Quintet   Space symmetry=4
 Number of states:        1
 Number of CSFs:          1   (1 determinants, 5 intermediate states)

 State symmetry 3

 Number of electrons:     6    Spin symmetry=Quintet   Space symmetry=6
 Number of states:        1
 Number of CSFs:          1   (1 determinants, 5 intermediate states)

 State symmetry 4

 Number of electrons:     6    Spin symmetry=Quintet   Space symmetry=7
 Number of states:        1
 Number of CSFs:          1   (1 determinants, 5 intermediate states)

 Iteration controls:
             1  2  3  4  5  6  7  8  9 10 11 12 13 14 15 16 17 18 19 20 21 22 23 24 25 26 27 28 29 30 31 32 33 34 35 36 37 38 39
 DIAGCI      T  T  T  T  T  T  T  T  T  T  T  T  T  T  T  T  T  T  T  T  T  T  T  T  T  T  T  T  T  T  T  T  T  T  T  T  T  T  T
 WERNER      T  T  T  T  T  T  T  T  T  T  T  T  T  T  T  T  T  T  T  T  T  T  T  T  T  T  T  T  T  T  T  T  T  T  T  T  T  T  T
 INTERNAL    F  T  T  T  T  T  T  T  T  T  T  T  T  T  T  T  T  T  T  T  T  T  T  T  T  T  T  T  T  T  T  T  T  T  T  T  T  T  T

 Molecular orbitals read from record     4203.2  Type=MCSCF/NATURAL (state averaged)

 EXTRA SYMMETRY OF MOS IN SYMMETRY 1:   1 2 3 1 1 2 3 1 2 3   1 2 3 1 4 6 5 2 3 1   5 6 4 2 3 1 5 6 4 3   2 1 3 2 1 3 2 3 2 1
                                        3 2 1 3 2 1 3 2 1 3   2 1 3 2 1 3 2 1 3 2   1 1 3 2 1 3 2 1 1 3   2 1 3 2 1 1 3 2 1 1
                                        1 1 1 1 1 1 1 1 1 1
 EXTRA SYMMETRY OF MOS IN SYMMETRY 2:   1 1 1 2 3 1 2 3 1 2   3 1 2 3 1 3 2 3 2 1   3 2 1 3 2 1 1 3 2 1   3 2 1 3 2 1 1 3 2 1
                                        3 2 1 3 2 1 1 3 2 1   1 1 1 1 1 1 1 1 1 1   1 1
 EXTRA SYMMETRY OF MOS IN SYMMETRY 3:   1 1 1 2 3 1 2 3 1 2   3 1 2 3 1 3 2 3 2 1   3 2 1 3 2 1 1 3 2 1   3 2 1 3 2 1 1 3 2 1
                                        3 2 1 3 2 1 1 3 2 1   1 1 1 1 1 1 1 1 1 1   1 1
 EXTRA SYMMETRY OF MOS IN SYMMETRY 4:   1 1 1 1 2 3 1 3 2 1   3 2 1 1 1 1 1 1 1 1   1 1 1 1 1 1 1 1
 EXTRA SYMMETRY OF MOS IN SYMMETRY 5:   1 1 1 2 3 1 2 3 1 2   3 1 2 3 1 3 2 3 2 1   3 2 1 3 2 1 1 3 2 1   3 2 1 3 2 1 1 3 2 1
                                        3 2 1 3 2 1 1 3 2 1   1 1 1 1 1 1 1 1 1 1   1 1
 EXTRA SYMMETRY OF MOS IN SYMMETRY 6:   1 1 1 1 2 3 1 3 2 1   3 2 1 1 1 1 1 1 1 1   1 1 1 1 1 1 1 1
 EXTRA SYMMETRY OF MOS IN SYMMETRY 7:   1 1 1 1 2 3 1 3 2 1   3 2 1 1 1 1 1 1 1 1   1 1 1 1 1 1 1 1

 Wavefunction dump at record             5202.2

 Convergence thresholds  0.10E-01 (gradient)  0.10E-05 (energy)  0.10E-02 (step length)

 Weight factors for state symmetry  1:    0.20000   0.20000
 Weight factors for state symmetry  2:    0.20000
 Weight factors for state symmetry  3:    0.20000
 Weight factors for state symmetry  4:    0.20000

 Number of orbital rotations:      527   (     2 Core/Active    270 Core/Virtual   0 Active/Active    255 Active/Virtual)
 Total number of variables:        534


 ITER. MIC  NCI  NEG     ENERGY(VAR)     ENERGY(PROJ)   ENERGY CHANGE     GRAD(0)  GRAD(ORB)   GRAD(CI)     STEP       TIME

   1   22   16    0    -102.10288489    -102.10291017   -0.00002528    0.01313946 0.00000000 0.00000000  0.21D-02      0.79
   2   21   28    0    -102.10291017    -102.10291017   -0.00000000    0.00000148 0.00000000 0.00000000  0.72D-06      1.64

 ** WVFN ****  CONVERGENCE REACHED, FINAL GRADIENT:  0.10D-08



 Results for state 1.1
 =====================

 !MCSCF STATE 1.1 Energy             -102.102910170038
   --><property name="Energy" method="MCSCF" principal="true" stateSymmetry="1" stateNumber="1"
     value="-102.102910170038"/><!--
 Nuclear energy                         0.00000000
 Kinetic energy                        32.27823929
 One electron energy                 -162.01004636
 Two electron energy                   59.90713619
 Virial ratio                           4.16321189

 !MCSCF STATE 1.1 Dipole moment         0.00000000     0.00000000     0.00000000
 Dipole moment /Debye                   0.00000000     0.00000000     0.00000000
   --><property name="Dipole moment" method="MCSCF" principal="true" stateSymmetry="1"
     stateNumber="1" value="0.0 0.0 0.0"/><!--

 Results for state 2.1
 =====================

 !MCSCF STATE 2.1 Energy             -102.102910170038
   --><property name="Energy" method="MCSCF" principal="true" stateSymmetry="1" stateNumber="2"
     value="-102.102910170038"/><!--
 Nuclear energy                         0.00000000
 Kinetic energy                        32.27823929
 One electron energy                 -162.01004636
 Two electron energy                   59.90713619
 Virial ratio                           4.16321189

 !MCSCF STATE 2.1 Dipole moment         0.00000000     0.00000000     0.00000000
 Dipole moment /Debye                   0.00000000     0.00000000     0.00000000
   --><property name="Dipole moment" method="MCSCF" principal="true" stateSymmetry="1"
     stateNumber="2" value="0.0 0.0 0.0"/><!--



 Results for state 1.4
 =====================

 !MCSCF STATE 1.4 Energy             -102.102910170038
   --><property name="Energy" method="MCSCF" principal="true" stateSymmetry="4" stateNumber="1"
     value="-102.102910170038"/><!--
 Nuclear energy                         0.00000000
 Kinetic energy                        32.27823929
 One electron energy                 -162.01004636
 Two electron energy                   59.90713619
 Virial ratio                           4.16321189

 !MCSCF STATE 1.4 Dipole moment         0.00000000     0.00000000     0.00000000
 Dipole moment /Debye                   0.00000000     0.00000000     0.00000000
   --><property name="Dipole moment" method="MCSCF" principal="true" stateSymmetry="4"
     stateNumber="1" value="0.0 0.0 0.0"/><!--



 Results for state 1.6
 =====================

 !MCSCF STATE 1.6 Energy             -102.102910170038
   --><property name="Energy" method="MCSCF" principal="true" stateSymmetry="6" stateNumber="1"
     value="-102.102910170038"/><!--
 Nuclear energy                         0.00000000
 Kinetic energy                        32.27823929
 One electron energy                 -162.01004636
 Two electron energy                   59.90713619
 Virial ratio                           4.16321189

 !MCSCF STATE 1.6 Dipole moment         0.00000000     0.00000000     0.00000000
 Dipole moment /Debye                   0.00000000     0.00000000     0.00000000
   --><property name="Dipole moment" method="MCSCF" principal="true" stateSymmetry="6"
     stateNumber="1" value="0.0 0.0 0.0"/><!--



 Results for state 1.7
 =====================

 !MCSCF STATE 1.7 Energy             -102.102910170038
   --><property name="Energy" method="MCSCF" principal="true" stateSymmetry="7" stateNumber="1"
     value="-102.102910170038"/><!--
 Nuclear energy                         0.00000000
 Kinetic energy                        32.27823929
 One electron energy                 -162.01004636
 Two electron energy                   59.90713619
 Virial ratio                           4.16321189

 !MCSCF STATE 1.7 Dipole moment         0.00000000     0.00000000     0.00000000
 Dipole moment /Debye                   0.00000000     0.00000000     0.00000000
   --><property name="Dipole moment" method="MCSCF" principal="true" stateSymmetry="7"
     stateNumber="1" value="0.0 0.0 0.0"/><!--

 State-averaged charge density matrix saved on record  5202.2 (density set 1)


 NATURAL ORBITALS (state averaged)
 =================================

   Orb     Occ        Energy       Coefficients

                                   1 1s      1 1s      1 1s      1 1s      1 1s      1 1s      1 1s      1 1s      1 1s      1 1s
                                   1 1s      1 1s      1 1s      1 1s      1 1s      1 1s      1 1s      1 1s      1 1s      1 1s
                                   1 1s      1 1s      1 1s      1 1s      1 1s      1 1s      1 1s      1 1s      1 1s      1 1s
                                   1 1s      1 1s      1 1s      1 1s      1 1s      1 1s      1 1s      1 3d0     1 3d2+    1 3d0
                                   1 3d2+    1 3d0     1 3d2+    1 3d0     1 3d2+    1 3d0     1 3d2+    1 3d0     1 3d2+    1 3d0
                                   1 3d2+    1 3d0     1 3d2+    1 3d0     1 3d2+    1 3d0     1 3d2+    1 3d0     1 3d2+    1 3d0
                                   1 3d2+    1 3d0     1 3d2+    1 3d0     1 3d2+    1 3d0     1 3d2+    1 3d0     1 3d2+    1 3d0
                                   1 3d2+    1 3d0     1 3d2+    1 3d0     1 3d2+    1 3d0     1 3d2+    1 3d0     1 3d2+    1 3d0
                                   1 3d2+    1 5g0     1 5g4+    1 5g2+    1 5g0     1 5g4+    1 5g2+    1 5g0     1 5g4+    1 5g2+


   1.1  2.00000    -5.395622     0.000000 -0.000000  0.000000 -0.000000  0.000000 -0.000000  0.000000 -0.000000  0.000000 -0.000000
                                 0.000001 -0.000003  0.000007 -0.000018  0.000055 -0.000200  0.001503 -0.003262  0.003194 -0.003248
                                 0.006247 -0.015273  0.050045 -0.310151  0.799796 -0.817016  0.637745 -0.553227 -1.075420  0.815201
                                 0.569524  0.341006  0.337604  0.037744 -0.014416  0.005550 -0.001483  0.000000  0.000000  0.000000
                                 0.000000  0.000000  0.000000  0.000000  0.000000  0.000000  0.000000  0.000000  0.000000  0.000000
                                 0.000000  0.000000  0.000000  0.000000  0.000000  0.000000  0.000000  0.000000  0.000000  0.000000
                                 0.000000  0.000000  0.000000  0.000000  0.000000  0.000000  0.000000  0.000000  0.000000  0.000000
                                 0.000000  0.000000  0.000000  0.000000  0.000000  0.000000  0.000000  0.000000  0.000000  0.000000
                                 0.000000  0.000000  0.000000  0.000000  0.000000  0.000000  0.000000  0.000000  0.000000  0.000000

   2.1  1.20000    -1.346595     0.000000  0.000000  0.000000  0.000000  0.000000  0.000000  0.000000  0.000000  0.000000  0.000000
                                 0.000000  0.000000  0.000000  0.000000  0.000000  0.000000  0.000000  0.000000  0.000000  0.000000
