<?xml version="1.0"?>
<molpro xmlns="http://www.molpro.net/schema/molpro-output"
  xmlns:xsd="http://www.w3.org/1999/XMLSchema"
  xmlns:cml="http://www.xml-cml.org/schema"
  xmlns:stm="http://www.xml-cml.org/schema"
  xmlns:xhtml="http://www.w3.org/1999/xhtml">
 <!--

 Nodes     nprocs
 nid12892    15
 Number of processes for MPI-2 version of Molpro:   nprocs(total)=   16   nprocs(compute)=   15   nprocs(helper)=    1

 Using customized tuning parameters: mindgm=7; mindgv=16; mindgc=1; mindgr=1; noblas=0; minvec=7
 default implementation of scratch files=sf

 --><job>
  <!--

 Variables initialized (889), CPU time= 0.04 sec
 Commands  initialized (702), CPU time= 0.01 sec, 572 directives.
 Default parameters read. Elapsed time= 0.15 sec

 Checking input...
 Passed
1


                                         ***  PROGRAM SYSTEM MOLPRO  ***
                                       Copyright, TTI GmbH Stuttgart, 2015
                                    Version 2015.1 linked Dec 29 2018 15:55:43


 **********************************************************************************************************************************
 LABEL *   Au
  64 bit mpp version                                                                     DATE: 22-Dec-21          TIME: 15:22:04
 **********************************************************************************************************************************

 SHA1:             19cd028119e0e09f93f0674bd8af7968d9b3eff6
 **********************************************************************************************************************************
  -->
  <!--

 THRESHOLDS:

 ZERO    =  1.00D-12  ONEINT  =  1.00D-12  TWOINT  =  1.00D-12  PREFAC  =  1.00D-14  LOCALI  =  1.00D-09  EORDER  =  1.00D-04
 ENERGY  =  0.00D+00  ETEST   =  0.00D+00  EDENS   =  0.00D+00  THRDEDEF=  1.00D-06  GRADIENT=  1.00D-02  STEP    =  1.00D-03
 ORBITAL =  1.00D-05  CIVEC   =  1.00D-05  COEFF   =  1.00D-04  PRINTCI =  5.00D-02  PUNCHCI =  9.90D+01  OPTGRAD =  3.00D-04
 OPTENERG=  1.00D-06  OPTSTEP =  3.00D-04  THRGRAD =  1.00D-10  COMPRESS=  1.00D-11  VARMIN  =  1.00D-07  VARMAX  =  1.00D-03
 THRDOUB =  0.00D+00  THRDIV  =  1.00D-05  THRRED  =  1.00D-07  THRPSP  =  1.00D+00  THRDC   =  1.00D-10  THRCS   =  1.00D-10
 THRNRM  =  1.00D-08  THREQ   =  0.00D+00  THRDE   =  1.00D+00  THRREF  =  1.00D-05  SPARFAC =  1.00D+00  THRDLP  =  1.00D-07
 THRDIA  =  1.00D-10  THRDLS  =  1.00D-07  THRGPS  =  0.00D+00  THRKEX  =  0.00D+00  THRDIS  =  2.00D-01  THRVAR  =  1.00D-10
 THRLOC  =  1.00D-06  THRGAP  =  1.00D-06  THRLOCT = -1.00D+00  THRGAPT = -1.00D+00  THRORB  =  1.00D-06  THRMLTP =  0.00D+00
 THRCPQCI=  1.00D-10  KEXTA   =  0.00D+00  THRCOARS=  0.00D+00  SYMTOL  =  1.00D-06  GRADTOL =  1.00D-06  THROVL  =  1.00D-08
 THRORTH =  1.00D-08  GRID    =  1.00D-06  GRIDMAX =  1.00D-03  DTMAX   =  0.00D+00  THROCCDE=  1.00D-01  THROCCDE=  1.00D-01



 ZUNIT=ANG


Geometry recognized as XYZ

 SETTING S_PAR(1)       =         1.23400000
 SETTING S_PAR(2)       =         0.77230000
 SETTING P_PAR(1)       =         2.69370000
 SETTING P_PAR(2)       =         1.68570000
 SETTING D_PAR(1)       =         3.71490000
 SETTING D_PAR(2)       =         1.69200000
 SETTING F_PAR          =         2.57740000
 SETTING G_PAR          =         3.03680000
 SETTING H_PAR          =         1.26720000

 Variable memory set to  512000000 words,  buffer space   230000 words

  --><jobstep command="MINIMIZE" commandset="MINIMIZE">
   <!--


 PROGRAM * MINIMIZE (General minimization)     Authors: H.-J. Werner, P.J. Knowles, K.A. Peterson

 Minimize EVAL with respect to:        S_PAR(1)  S_PAR(2)  P_PAR(1)  P_PAR(2)  D_PAR(1)
                                       D_PAR(2)  F_PAR(1)  G_PAR(1)  H_PAR(1)
 Method BFGS will be used
 Variables are optimized in the space of (x/x0)


 Minimization using procedure=OPT_BASIS

 Running procedure=OPT_BASIS
 SETTING BASIS          =    USERDEF
   --><jobstep command="RHF-SCF" commandset="SCFPRO">
    <!--


 Current variables in basis input:

 Set= 1  S_PAR(1)            =       1.23400000
 Set= 1  S_PAR(2)            =       0.77230000
 Set= 1  P_PAR(1)            =       2.69370000
 Set= 1  P_PAR(2)            =       1.68570000
 Set= 1  D_PAR(1)            =       3.71490000
 Set= 1  D_PAR(2)            =       1.69200000
 Set= 1  F_PAR(1)            =       2.57740000
 Set= 1  G_PAR(1)            =       3.03680000
 Set= 1  H_PAR(1)            =       1.26720000

 Recomputing integrals since basis changed


 Using spherical harmonics



 PROGRAM * SEWARD (Integral evaluation for generally contracted gaussian basis sets)     Author: Roland Lindh, 1990

 Geometry written to block  1 of record 700

 Orientation using atomic masses
 Molecule type: Atom
 Symmetry elements: X,Y,Z
 Rotational constants:       0.0000000      0.0000000      0.0000000 GHz  (calculated with average atomic masses)

 Point group  D2h


    --><cml:molecule>
     <cml:symmetry pointGroup="D2h"/>
     <cml:atomArray>
      <cml:atom id="a1" elementType="Au" x3="0.0" y3="0.0" z3="0.0"/>
     </cml:atomArray>
     <cml:bondArray>
     </cml:bondArray>
    </cml:molecule><!--

 ATOMIC COORDINATES

 NR  ATOM    CHARGE       X              Y              Z

   1  AU     19.00    0.000000000    0.000000000    0.000000000


          AU  CORE POTENTIAL

          g POTENTIAL

 POWERS             1              3              2              2
 EXPONENTIALS   9.985262       9.536259       10.88239       3.792290
 COEFFICIENTS   19.00000       189.7200      -140.5286      -8.417696

          s - g POTENTIAL

 POWERS             2              2              2
 EXPONENTIALS   13.80918       6.576682       4.315266
 COEFFICIENTS   423.1515       23.88043       12.72962

          p - g POTENTIAL

 POWERS             2              2              2
 EXPONENTIALS   11.80694       5.843816       4.462109
 COEFFICIENTS   260.2560       32.79793       14.97589

          d - g POTENTIAL

 POWERS             2              2              2
 EXPONENTIALS   8.633228       3.946753       4.081605
 COEFFICIENTS   135.2774       12.46466       13.92047

          f - g POTENTIAL

 POWERS             2              2              2
 EXPONENTIALS   3.467163       3.593635       3.613935
 COEFFICIENTS   12.31756       14.87772       15.14360


 BASIS DATA

   Nr Sym  Nuc  Type         Exponents   Contraction coefficients

    1.1 Ag    1  1s         233.341004    -0.000105    0.000072   -0.000156   -0.001758    0.010058    0.000000
    2.1 Ag                  110.996840     0.000385   -0.000323    0.000712    0.008773   -0.049929    0.000000
    3.1 Ag                   52.799544     0.001111    0.000316   -0.000846   -0.028823    0.156536    0.000000
    4.1 Ag                   25.115957    -0.038601    0.010717   -0.021672    0.111162   -0.466578    0.000000
    5.1 Ag                   11.947287     0.334238   -0.109611    0.229289   -0.551502    1.628856    0.000000
    6.1 Ag                    5.683146    -0.888770    0.321561   -0.678624    1.578957   -4.766145    0.000000
                              2.703388     0.057386   -0.049719   -0.025990   -0.843162    7.659884    0.000000
                              1.285961     0.975214   -0.452819    1.743661   -3.597385   -5.108447    0.000000
                              0.611713     0.311645   -0.237397   -0.299680    6.000266   -1.643959    0.000000
                              0.290983     0.041748    0.086608   -1.790830   -2.640695    6.974489    0.000000
                              0.138416    -0.010342    0.457628    0.057210   -1.282614   -6.775952    0.000000
                              0.065842     0.006023    0.512455    0.801268    0.962417    2.604668    0.000000
                              0.031320    -0.001482    0.160898    0.245944    0.351161    0.068460    1.000000
    7.1 Ag    1  1s           1.234000     1.000000
    8.1 Ag    1  1s           0.772300     1.000000
    9.1 Ag    1  3d0         49.279958     0.000688
                             27.345106    -0.003808
                             15.173609     0.014465
                              8.419730    -0.025143
                              4.672050    -0.076979
                              2.592488     0.131790
                              1.438554     0.271828
                              0.798243     0.326047
                              0.442940     0.254021
                              0.245784     0.176388
                              0.136384     0.077763
                              0.075678     0.025410
                              0.041993     0.001610
   10.1 Ag    1  3d2+        49.279958     0.000688
                             27.345106    -0.003808
                             15.173609     0.014465
                              8.419730    -0.025143
                              4.672050    -0.076979
                              2.592488     0.131790
                              1.438554     0.271828
                              0.798243     0.326047
                              0.442940     0.254021
                              0.245784     0.176388
                              0.136384     0.077763
                              0.075678     0.025410
                              0.041993     0.001610
   11.1 Ag    1  3d0         49.279958    -0.000828
                             27.345106     0.004639
                             15.173609    -0.018104
                              8.419730     0.032697
                              4.672050     0.104271
                              2.592488    -0.195658
                              1.438554    -0.495151
                              0.798243    -0.283091
                              0.442940     0.251562
                              0.245784     0.431950
                              0.136384     0.289043
                              0.075678     0.097154
                              0.041993     0.011940
   12.1 Ag    1  3d2+        49.279958    -0.000828
                             27.345106     0.004639
                             15.173609    -0.018104
                              8.419730     0.032697
                              4.672050     0.104271
                              2.592488    -0.195658
                              1.438554    -0.495151
                              0.798243    -0.283091
                              0.442940     0.251562
                              0.245784     0.431950
                              0.136384     0.289043
                              0.075678     0.097154
                              0.041993     0.011940
   13.1 Ag    1  3d0         49.279958    -0.000447
                             27.345106     0.003130
                             15.173609    -0.015273
                              8.419730     0.017951
                              4.672050     0.245262
                              2.592488    -0.529108
                              1.438554    -0.881386
                              0.798243     0.829583
                              0.442940     0.765746
                              0.245784    -0.267981
                              0.136384    -0.487977
                              0.075678    -0.206665
                              0.041993    -0.026578
   14.1 Ag    1  3d2+        49.279958    -0.000447
                             27.345106     0.003130
                             15.173609    -0.015273
                              8.419730     0.017951
                              4.672050     0.245262
                              2.592488    -0.529108
                              1.438554    -0.881386
                              0.798243     0.829583
                              0.442940     0.765746
                              0.245784    -0.267981
                              0.136384    -0.487977
                              0.075678    -0.206665
                              0.041993    -0.026578
   15.1 Ag    1  3d0         49.279958     0.000761
                             27.345106    -0.002013
                             15.173609    -0.003185
                              8.419730    -0.029720
                              4.672050     0.640288
                              2.592488    -1.977592
                              1.438554     0.570186
                              0.798243     2.052667
                              0.442940    -1.774404
                              0.245784    -0.295272
                              0.136384     0.422872
                              0.075678     0.403024
                              0.041993     0.035907
   16.1 Ag    1  3d2+        49.279958     0.000761
                             27.345106    -0.002013
                             15.173609    -0.003185
                              8.419730    -0.029720
                              4.672050     0.640288
                              2.592488    -1.977592
                              1.438554     0.570186
                              0.798243     2.052667
                              0.442940    -1.774404
                              0.245784    -0.295272
                              0.136384     0.422872
                              0.075678     0.403024
                              0.041993     0.035907
   17.1 Ag    1  3d0         49.279958     0.000000
                             27.345106     0.000000
                             15.173609     0.000000
                              8.419730     0.000000
                              4.672050     0.000000
                              2.592488     0.000000
                              1.438554     0.000000
                              0.798243     0.000000
                              0.442940     0.000000
                              0.245784     0.000000
                              0.136384     0.000000
                              0.075678     0.000000
                              0.041993     1.000000
   18.1 Ag    1  3d2+        49.279958     0.000000
                             27.345106     0.000000
                             15.173609     0.000000
                              8.419730     0.000000
                              4.672050     0.000000
                              2.592488     0.000000
                              1.438554     0.000000
                              0.798243     0.000000
                              0.442940     0.000000
                              0.245784     0.000000
                              0.136384     0.000000
                              0.075678     0.000000
                              0.041993     1.000000
   19.1 Ag    1  3d0          3.714900     1.000000
   20.1 Ag    1  3d2+         3.714900     1.000000
   21.1 Ag    1  3d0          1.692000     1.000000
   22.1 Ag    1  3d2+         1.692000     1.000000
   23.1 Ag    1  5g0          2.362115     1.000000
   24.1 Ag    1  5g4+         2.362115     1.000000
   25.1 Ag    1  5g2+         2.362115     1.000000
   26.1 Ag    1  5g0          0.894749     1.000000
   27.1 Ag    1  5g4+         0.894749     1.000000
   28.1 Ag    1  5g2+         0.894749     1.000000
   29.1 Ag    1  5g0          3.036800     1.000000
   30.1 Ag    1  5g4+         3.036800     1.000000
   31.1 Ag    1  5g2+         3.036800     1.000000
    1.2 B3u   1  2px         78.542818     0.000137   -0.000178   -0.000205    0.003965    0.017998    0.000000
    2.2 B3u                  41.429605    -0.000508    0.000822    0.000926   -0.019465   -0.087943    0.000000
    3.2 B3u                  21.853204    -0.004642    0.000761    0.002117    0.065370    0.278747    0.000000
    4.2 B3u                  11.527083     0.084821   -0.044189   -0.069501   -0.241186   -0.874779    0.000000
    5.2 B3u                   6.080282    -0.325006    0.187638    0.282640    0.622965    2.518648    0.000000
    6.2 B3u                   3.207215     0.026103   -0.008202    0.116135    0.168322   -3.870311    0.000000
                              1.691735     0.521552   -0.412309   -1.254795   -3.385317    0.893409    0.000000
                              0.892353     0.443256   -0.396189    0.003371    4.305941    4.522885    0.000000
                              0.470697     0.178236    0.212335    1.473058   -0.970392   -7.140992    0.000000
                              0.248282     0.021703    0.583458    0.055366   -1.701447    4.928889    0.000000
                              0.130963     0.006551    0.371497   -0.730411    0.691105   -1.048923    0.000000
                              0.069080    -0.001264    0.078421   -0.325634    0.519993   -0.260752    0.000000
                              0.036438     0.000487    0.004772   -0.024197    0.056938   -0.295455    1.000000
    7.2 B3u   1  2px          2.693700     1.000000
    8.2 B3u   1  2px          1.685700     1.000000
    9.2 B3u   1  4f1+         1.994156     1.000000
   10.2 B3u   1  4f3+         1.994156     1.000000
   11.2 B3u   1  4f1+         0.876501     1.000000
   12.2 B3u   1  4f3+         0.876501     1.000000
   13.2 B3u   1  4f1+         0.385253     1.000000
   14.2 B3u   1  4f3+         0.385253     1.000000
   15.2 B3u   1  4f1+         2.577400     1.000000
   16.2 B3u   1  4f3+         2.577400     1.000000
   17.2 B3u   1  6h1+         1.963806     1.000000
   18.2 B3u   1  6h3+         1.963806     1.000000
   19.2 B3u   1  6h5+         1.963806     1.000000
   20.2 B3u   1  6h1+         1.267200     1.000000
   21.2 B3u   1  6h3+         1.267200     1.000000
   22.2 B3u   1  6h5+         1.267200     1.000000
    1.3 B2u   1  2py         78.542818     0.000137   -0.000178   -0.000205    0.003965    0.017998    0.000000
    2.3 B2u                  41.429605    -0.000508    0.000822    0.000926   -0.019465   -0.087943    0.000000
    3.3 B2u                  21.853204    -0.004642    0.000761    0.002117    0.065370    0.278747    0.000000
    4.3 B2u                  11.527083     0.084821   -0.044189   -0.069501   -0.241186   -0.874779    0.000000
    5.3 B2u                   6.080282    -0.325006    0.187638    0.282640    0.622965    2.518648    0.000000
    6.3 B2u                   3.207215     0.026103   -0.008202    0.116135    0.168322   -3.870311    0.000000
                              1.691735     0.521552   -0.412309   -1.254795   -3.385317    0.893409    0.000000
                              0.892353     0.443256   -0.396189    0.003371    4.305941    4.522885    0.000000
                              0.470697     0.178236    0.212335    1.473058   -0.970392   -7.140992    0.000000
                              0.248282     0.021703    0.583458    0.055366   -1.701447    4.928889    0.000000
                              0.130963     0.006551    0.371497   -0.730411    0.691105   -1.048923    0.000000
                              0.069080    -0.001264    0.078421   -0.325634    0.519993   -0.260752    0.000000
                              0.036438     0.000487    0.004772   -0.024197    0.056938   -0.295455    1.000000
    7.3 B2u   1  2py          2.693700     1.000000
    8.3 B2u   1  2py          1.685700     1.000000
    9.3 B2u   1  4f1-         1.994156     1.000000
   10.3 B2u   1  4f3-         1.994156     1.000000
   11.3 B2u   1  4f1-         0.876501     1.000000
   12.3 B2u   1  4f3-         0.876501     1.000000
   13.3 B2u   1  4f1-         0.385253     1.000000
   14.3 B2u   1  4f3-         0.385253     1.000000
   15.3 B2u   1  4f1-         2.577400     1.000000
   16.3 B2u   1  4f3-         2.577400     1.000000
   17.3 B2u   1  6h1-         1.963806     1.000000
   18.3 B2u   1  6h3-         1.963806     1.000000
   19.3 B2u   1  6h5-         1.963806     1.000000
   20.3 B2u   1  6h1-         1.267200     1.000000
   21.3 B2u   1  6h3-         1.267200     1.000000
   22.3 B2u   1  6h5-         1.267200     1.000000
    1.4 B1g   1  3d2-        49.279958     0.000688   -0.000828   -0.000447    0.000761    0.000000
    2.4 B1g                  27.345106    -0.003808    0.004639    0.003130   -0.002013    0.000000
    3.4 B1g                  15.173609     0.014465   -0.018104   -0.015273   -0.003185    0.000000
    4.4 B1g                   8.419730    -0.025143    0.032697    0.017951   -0.029720    0.000000
    5.4 B1g                   4.672050    -0.076979    0.104271    0.245262    0.640288    0.000000
                              2.592488     0.131790   -0.195658   -0.529108   -1.977592    0.000000
                              1.438554     0.271828   -0.495151   -0.881386    0.570186    0.000000
                              0.798243     0.326047   -0.283091    0.829583    2.052667    0.000000
                              0.442940     0.254021    0.251562    0.765746   -1.774404    0.000000
                              0.245784     0.176388    0.431950   -0.267981   -0.295272    0.000000
                              0.136384     0.077763    0.289043   -0.487977    0.422872    0.000000
                              0.075678     0.025410    0.097154   -0.206665    0.403024    0.000000
                              0.041993     0.001610    0.011940   -0.026578    0.035907    1.000000
    6.4 B1g   1  3d2-         3.714900     1.000000
    7.4 B1g   1  3d2-         1.692000     1.000000
    8.4 B1g   1  5g2-         2.362115     1.000000
    9.4 B1g   1  5g4-         2.362115     1.000000
   10.4 B1g   1  5g2-         0.894749     1.000000
   11.4 B1g   1  5g4-         0.894749     1.000000
   12.4 B1g   1  5g2-         3.036800     1.000000
   13.4 B1g   1  5g4-         3.036800     1.000000
    1.5 B1u   1  2pz         78.542818     0.000137   -0.000178   -0.000205    0.003965    0.017998    0.000000
    2.5 B1u                  41.429605    -0.000508    0.000822    0.000926   -0.019465   -0.087943    0.000000
    3.5 B1u                  21.853204    -0.004642    0.000761    0.002117    0.065370    0.278747    0.000000
    4.5 B1u                  11.527083     0.084821   -0.044189   -0.069501   -0.241186   -0.874779    0.000000
    5.5 B1u                   6.080282    -0.325006    0.187638    0.282640    0.622965    2.518648    0.000000
    6.5 B1u                   3.207215     0.026103   -0.008202    0.116135    0.168322   -3.870311    0.000000
                              1.691735     0.521552   -0.412309   -1.254795   -3.385317    0.893409    0.000000
                              0.892353     0.443256   -0.396189    0.003371    4.305941    4.522885    0.000000
                              0.470697     0.178236    0.212335    1.473058   -0.970392   -7.140992    0.000000
                              0.248282     0.021703    0.583458    0.055366   -1.701447    4.928889    0.000000
                              0.130963     0.006551    0.371497   -0.730411    0.691105   -1.048923    0.000000
                              0.069080    -0.001264    0.078421   -0.325634    0.519993   -0.260752    0.000000
                              0.036438     0.000487    0.004772   -0.024197    0.056938   -0.295455    1.000000
    7.5 B1u   1  2pz          2.693700     1.000000
    8.5 B1u   1  2pz          1.685700     1.000000
    9.5 B1u   1  4f0          1.994156     1.000000
   10.5 B1u   1  4f2+         1.994156     1.000000
   11.5 B1u   1  4f0          0.876501     1.000000
   12.5 B1u   1  4f2+         0.876501     1.000000
   13.5 B1u   1  4f0          0.385253     1.000000
   14.5 B1u   1  4f2+         0.385253     1.000000
   15.5 B1u   1  4f0          2.577400     1.000000
   16.5 B1u   1  4f2+         2.577400     1.000000
   17.5 B1u   1  6h2+         1.963806     1.000000
   18.5 B1u   1  6h4+         1.963806     1.000000
   19.5 B1u   1  6h0          1.963806     1.000000
   20.5 B1u   1  6h2+         1.267200     1.000000
   21.5 B1u   1  6h4+         1.267200     1.000000
   22.5 B1u   1  6h0          1.267200     1.000000
    1.6 B2g   1  3d1+        49.279958     0.000688   -0.000828   -0.000447    0.000761    0.000000
    2.6 B2g                  27.345106    -0.003808    0.004639    0.003130   -0.002013    0.000000
    3.6 B2g                  15.173609     0.014465   -0.018104   -0.015273   -0.003185    0.000000
    4.6 B2g                   8.419730    -0.025143    0.032697    0.017951   -0.029720    0.000000
    5.6 B2g                   4.672050    -0.076979    0.104271    0.245262    0.640288    0.000000
                              2.592488     0.131790   -0.195658   -0.529108   -1.977592    0.000000
                              1.438554     0.271828   -0.495151   -0.881386    0.570186    0.000000
                              0.798243     0.326047   -0.283091    0.829583    2.052667    0.000000
                              0.442940     0.254021    0.251562    0.765746   -1.774404    0.000000
                              0.245784     0.176388    0.431950   -0.267981   -0.295272    0.000000
                              0.136384     0.077763    0.289043   -0.487977    0.422872    0.000000
                              0.075678     0.025410    0.097154   -0.206665    0.403024    0.000000
                              0.041993     0.001610    0.011940   -0.026578    0.035907    1.000000
    6.6 B2g   1  3d1+         3.714900     1.000000
    7.6 B2g   1  3d1+         1.692000     1.000000
    8.6 B2g   1  5g1+         2.362115     1.000000
    9.6 B2g   1  5g3+         2.362115     1.000000
   10.6 B2g   1  5g1+         0.894749     1.000000
   11.6 B2g   1  5g3+         0.894749     1.000000
   12.6 B2g   1  5g1+         3.036800     1.000000
   13.6 B2g   1  5g3+         3.036800     1.000000
    1.7 B3g   1  3d1-        49.279958     0.000688   -0.000828   -0.000447    0.000761    0.000000
    2.7 B3g                  27.345106    -0.003808    0.004639    0.003130   -0.002013    0.000000
    3.7 B3g                  15.173609     0.014465   -0.018104   -0.015273   -0.003185    0.000000
    4.7 B3g                   8.419730    -0.025143    0.032697    0.017951   -0.029720    0.000000
    5.7 B3g                   4.672050    -0.076979    0.104271    0.245262    0.640288    0.000000
                              2.592488     0.131790   -0.195658   -0.529108   -1.977592    0.000000
                              1.438554     0.271828   -0.495151   -0.881386    0.570186    0.000000
                              0.798243     0.326047   -0.283091    0.829583    2.052667    0.000000
                              0.442940     0.254021    0.251562    0.765746   -1.774404    0.000000
                              0.245784     0.176388    0.431950   -0.267981   -0.295272    0.000000
                              0.136384     0.077763    0.289043   -0.487977    0.422872    0.000000
                              0.075678     0.025410    0.097154   -0.206665    0.403024    0.000000
                              0.041993     0.001610    0.011940   -0.026578    0.035907    1.000000
    6.7 B3g   1  3d1-         3.714900     1.000000
    7.7 B3g   1  3d1-         1.692000     1.000000
    8.7 B3g   1  5g1-         2.362115     1.000000
    9.7 B3g   1  5g3-         2.362115     1.000000
   10.7 B3g   1  5g1-         0.894749     1.000000
   11.7 B3g   1  5g3-         0.894749     1.000000
   12.7 B3g   1  5g1-         3.036800     1.000000
   13.7 B3g   1  5g3-         3.036800     1.000000
    1.8 Au    1  4f2-         1.994156     1.000000
    2.8 Au    1  4f2-         0.876501     1.000000
    3.8 Au    1  4f2-         0.385253     1.000000
    4.8 Au    1  4f2-         2.577400     1.000000
    5.8 Au    1  6h4-         1.963806     1.000000
    6.8 Au    1  6h2-         1.963806     1.000000
    7.8 Au    1  6h4-         1.267200     1.000000
    8.8 Au    1  6h2-         1.267200     1.000000

 NUCLEAR CHARGE:                   19
 NUMBER OF PRIMITIVE AOS:         277
 NUMBER OF SYMMETRY AOS:          212
 NUMBER OF CONTRACTIONS:          144   (  31Ag  +  22B3u +  22B2u +  13B1g +  22B1u +  13B2g +  13B3g +   8Au  )
 NUMBER OF CORE ORBITALS:           4   (   1Ag  +   1B3u +   1B2u +   0B1g +   1B1u +   0B2g +   0B3g +   0Au  )
 NUMBER OF VALENCE ORBITALS:        6   (   3Ag  +   0B3u +   0B2u +   1B1g +   0B1u +   1B2g +   1B3g +   0Au  )


 NUCLEAR REPULSION ENERGY    0.00000000

 EXTRA SYMMETRY OF AOS IN SYMMETRY 1:   1 1 1 1 1 1 1 1 2 3   2 3 2 3 2 3 2 3 2 3   2 3 4 5 6 4 5 6 4 5   6
 EXTRA SYMMETRY OF AOS IN SYMMETRY 2:   1 1 1 1 1 1 1 1 2 3   2 3 2 3 2 3 4 5 6 4   5 6
 EXTRA SYMMETRY OF AOS IN SYMMETRY 3:   1 1 1 1 1 1 1 1 2 3   2 3 2 3 2 3 4 5 6 4   5 6
 EXTRA SYMMETRY OF AOS IN SYMMETRY 4:   1 1 1 1 1 1 1 2 3 2   3 2 3
 EXTRA SYMMETRY OF AOS IN SYMMETRY 5:   1 1 1 1 1 1 1 1 2 3   2 3 2 3 2 3 4 5 6 4   5 6
 EXTRA SYMMETRY OF AOS IN SYMMETRY 6:   1 1 1 1 1 1 1 2 3 2   3 2 3
 EXTRA SYMMETRY OF AOS IN SYMMETRY 7:   1 1 1 1 1 1 1 2 3 2   3 2 3
 EXTRA SYMMETRY OF AOS IN SYMMETRY 8:   1 1 1 1 2 3 2 3

 Eigenvalues of metric

         1 0.420E-04 0.815E-03 0.815E-03 0.168E-01 0.262E-01 0.262E-01 0.262E-01 0.947E-01
         2 0.297E-03 0.121E-01 0.121E-01 0.812E-01 0.131E+00 0.143E+00 0.143E+00 0.143E+00
         3 0.297E-03 0.121E-01 0.121E-01 0.812E-01 0.131E+00 0.143E+00 0.143E+00 0.143E+00
         4 0.815E-03 0.262E-01 0.262E-01 0.153E+00 0.291E+00 0.689E+00 0.689E+00 0.998E+00
         5 0.297E-03 0.121E-01 0.121E-01 0.812E-01 0.131E+00 0.143E+00 0.143E+00 0.143E+00
         6 0.815E-03 0.262E-01 0.262E-01 0.153E+00 0.291E+00 0.689E+00 0.689E+00 0.998E+00
         7 0.815E-03 0.262E-01 0.262E-01 0.153E+00 0.291E+00 0.689E+00 0.689E+00 0.998E+00
         8 0.121E-01 0.143E+00 0.143E+00 0.202E+00 0.108E+01 0.186E+01 0.186E+01 0.270E+01


 Contracted 2-electron integrals neglected if value below      1.0D-12
 AO integral compression algorithm  1   Integral accuracy      1.0D-12

     55.050 MB (compressed) written to integral file ( 59.8%)

     Node minimum: 1.311 MB, node maximum: 6.029 MB


 NUMBER OF SORTED TWO-ELECTRON INTEGRALS:     473601.     BUFFER LENGTH:  32768
 NUMBER OF SEGMENTS:   1  SEGMENT LENGTH:     473601      RECORD LENGTH: 524288

 Memory used in sort:       1.03 MW

 SORT1 READ    11599838. AND WROTE      332946. INTEGRALS IN      1 RECORDS. CPU TIME:     0.33 SEC, REAL TIME:     0.35 SEC
 SORT2 READ     4948094. AND WROTE     7063297. INTEGRALS IN    105 RECORDS. CPU TIME:     0.02 SEC, REAL TIME:     0.08 SEC

 Node minimum:      452710.  Node maximum:      487861. integrals

 OPERATOR DM      FOR CENTER  0  COORDINATES:    0.000000    0.000000    0.000000


 **********************************************************************************************************************************
 DATASETS  * FILE   NREC   LENGTH (MB)   RECORD NAMES
              1      19       20.06       500      610      700      900      950      970     1000      129      960     1100
                                          VAR    BASINP    GEOM    SYMINP    ZMAT    AOBASIS   BASIS     P2S    ABASIS      S
                                         1400     1410     1420     1200     1210     1080     1600     1650     1700
                                           T        V       ECP      H0       H01     AOSYM     SMH    MOLCAS    OPER

 PROGRAMS   *        TOTAL       INT
 CPU TIMES  *         1.94      1.59
 REAL TIME  *         2.78 SEC
 DISK USED  *       100.06 MB
 GA USED    *         0.00 MB       (max)       0.00 MB       (current)
 **********************************************************************************************************************************


 PROGRAM * RHF-SCF (OPEN SHELL)       Authors: W. Meyer, H.-J. Werner


 NUMBER OF ELECTRONS:      10+    9-    SPACE SYMMETRY=1    SPIN SYMMETRY: Doublet
 CONVERGENCE THRESHOLDS:    1.00E-05 (Density)    1.00E-07 (Energy)
 MAX. NUMBER OF ITERATIONS:       60
 INTERPOLATION TYPE:            DIIS
 INTERPOLATION STEPS:              2 (START)      1 (STEP)
 LEVEL SHIFTS:                 -0.60 (CLOSED) -0.30 (OPEN)


 Singly occupied orbitals:      4.1

 Extra symmetries of mos in symmetry 1:   1   3   2   1

   Atom=AU basis=cc-pVTZ-PP        lmin=0  lmax=2

 Orbital guess generated from atomic densities. Full valence occupancy:    4   1   1   1   1   1   1   0


 Molecular orbital dump at record        4202.2

 ITERATION    DDIFF          GRAD             ENERGY        2-EL.EN.            DIPOLE MOMENTS         DIIS   ORB.
    1      0.000D+00      0.000D+00      -134.96519113    213.269916    0.00000    0.00000    0.00000    0    start
    2      0.000D+00      0.177D-01      -135.00295281    208.123952    0.00000    0.00000    0.00000    1    diag,B
    3      0.558D-02      0.629D-02      -135.00583415    208.823541    0.00000    0.00000    0.00000    2    diag,B
    4      0.137D-02      0.904D-03      -135.00607532    208.704358    0.00000    0.00000    0.00000    3    diag,B
    5      0.908D-03      0.232D-03      -135.00611437    208.656221    0.00000    0.00000    0.00000    4    diag,B
    6      0.681D-03      0.685D-04      -135.00612107    208.638738    0.00000    0.00000    0.00000    5    diag,B
    7      0.431D-03      0.202D-04      -135.00612173    208.635196    0.00000    0.00000    0.00000    6    fixocc
    8      0.166D-03      0.376D-05      -135.00612176    208.634238    0.00000    0.00000    0.00000    7    diag,B
    9      0.235D-04      0.192D-05      -135.00612177    208.633999    0.00000    0.00000    0.00000    8    diag,B
   10      0.170D-04      0.270D-06      -135.00612177    208.633893    0.00000    0.00000    0.00000    9    orth
   11      0.250D-05      0.606D-07      -135.00612177    208.633894    0.00000    0.00000    0.00000    0    orth

 Final alpha occupancy:   4   1   1   1   1   1   1   0
 Final beta  occupancy:   3   1   1   1   1   1   1   0

 !RHF STATE 1.1 Energy               -135.006121767357
    --><property name="Energy" method="RHF" principal="true" stateSymmetry="1" stateNumber="1"
      value="-135.006121767357"/><!--
 Nuclear energy                         0.00000000
 One-electron energy                 -239.32306880
 Two-electron energy                  104.31694704
 Virial quotient                       -2.94032656
 !RHF STATE 1.1 Dipole moment           0.00000000     0.00000000     0.00000000
 Dipole moment /Debye                   0.00000000     0.00000000     0.00000000
    --><property name="Dipole moment" method="RHF" principal="true" stateSymmetry="1"
      stateNumber="1" value="0.0 0.0 0.0"/><!--

 ELECTRON ORBITALS
 =================


   Orb  Occ    Energy  Couls-En    Coefficients

                                   1 1s      1 1s      1 1s      1 1s      1 1s      1 1s      1 1s      1 1s      1 3d0     1 3d2+
                                   1 3d0     1 3d2+    1 3d0     1 3d2+    1 3d0     1 3d2+    1 3d0     1 3d2+    1 3d0     1 3d2+
                                   1 3d0     1 3d2+    1 5g0     1 5g4+    1 5g2+    1 5g0     1 5g4+    1 5g2+    1 5g0     1 5g4+
                                   1 5g2+

   1.1   2    -4.6814  -21.9144  1.006418  0.002523 -0.002475  0.001947 -0.000064 -0.000847  0.014333 -0.019810 -0.000000  0.000000
                                 0.000000 -0.000000  0.000000 -0.000000 -0.000000  0.000000  0.000000 -0.000000 -0.000000  0.000000
                                 0.000000 -0.000000  0.000000 -0.000000  0.000000  0.000000  0.000000 -0.000000  0.000000  0.000000
                                -0.000000

   2.1   2    -0.4539  -11.3475 -0.000000 -0.000000 -0.000000 -0.000000 -0.000000  0.000000 -0.000000  0.000000 -0.002031  1.001603
                                 0.000002 -0.000986  0.000001 -0.000635 -0.000000  0.000074  0.000000 -0.000179 -0.000001  0.000472
                                 0.000005 -0.002320  0.000000  0.000000  0.000000  0.000000  0.000000 -0.000000 -0.000000 -0.000000
                                -0.000000

   3.1   2    -0.4539  -11.3475  0.000000  0.000000  0.000000  0.000000  0.000000 -0.000000  0.000000 -0.000000  1.001603  0.002031
                                -0.000986 -0.000002 -0.000635 -0.000001  0.000074  0.000000 -0.000179 -0.000000  0.000472  0.000001
                                -0.002320 -0.000005 -0.000000  0.000000  0.000000 -0.000000 -0.000000 -0.000000 -0.000000 -0.000000
                                -0.000000

   4.1   +    -0.2909   -7.1208 -0.001276  0.999485  0.000445 -0.000422 -0.000009  0.000187 -0.002838  0.003923 -0.000000 -0.000000
                                 0.000000  0.000000 -0.000000  0.000000  0.000000 -0.000000 -0.000000 -0.000000  0.000000 -0.000000
                                -0.000000  0.000000  0.000000 -0.000000  0.000000 -0.000000  0.000000 -0.000000 -0.000000  0.000000
                                -0.000000

   5.1   0     0.0967   -3.1682 -0.540411 -2.607253 -0.533493 -0.220900 -0.078279  3.080541 -0.215067  0.011113 -0.000000 -0.000000
                                 0.000000  0.000000  0.000000  0.000000 -0.000000 -0.000000  0.000000  0.000000 -0.000000 -0.000000
                                 0.000000  0.000000 -0.000000  0.000000 -0.000000  0.000000 -0.000000  0.000000  0.000000 -0.000000
                                 0.000000

   6.1   0     0.1367   -2.8367  0.000000  0.000000  0.000000  0.000000  0.000000 -0.000000  0.000000  0.000000 -0.340010  0.000016
                                -0.035360  0.000002  0.140830 -0.000007 -0.045714  0.000002  1.127445 -0.000054 -0.047227  0.000002
                                 0.206472 -0.000010 -0.000000 -0.000000 -0.000000  0.000000  0.000000  0.000000  0.000000  0.000000
                                 0.000000

                                   1 2px     1 2px     1 2px     1 2px     1 2px     1 2px     1 2px     1 2px     1 4f1+    1 4f3+
                                   1 4f1+    1 4f3+    1 4f1+    1 4f3+    1 4f1+    1 4f3+    1 6h1+    1 6h3+    1 6h5+    1 6h1+
                                   1 6h3+    1 6h5+

   1.2   2    -2.7495  -17.5979  1.001160 -0.000285 -0.000058 -0.000039  0.000165  0.000132  0.001372 -0.002385 -0.000000  0.000000
                                 0.000000 -0.000000 -0.000000  0.000000  0.000000 -0.000000  0.000000 -0.000000 -0.000000 -0.000000
                                 0.000000  0.000000

   2.2   0     0.0463   -3.8130  0.059306  0.003328  0.034622 -0.041399  0.040963  1.041890  0.195294 -0.344923 -0.000000 -0.000000
                                 0.000000  0.000000 -0.000000 -0.000000  0.000000  0.000000 -0.000000  0.000000 -0.000000  0.000000
                                -0.000000  0.000000

   3.2   0     0.2317   -4.3977 -0.993903  1.641099 -0.773080  0.413184 -0.297762 -1.483276 -1.369743  2.360837  0.000000  0.000000
                                -0.000000 -0.000000  0.000000  0.000000 -0.000000 -0.000000  0.000000  0.000000  0.000000 -0.000000
                                -0.000000 -0.000000

                                   1 2py     1 2py     1 2py     1 2py     1 2py     1 2py     1 2py     1 2py     1 4f1-    1 4f3-
                                   1 4f1-    1 4f3-    1 4f1-    1 4f3-    1 4f1-    1 4f3-    1 6h1-    1 6h3-    1 6h5-    1 6h1-
                                   1 6h3-    1 6h5-

   1.3   2    -2.7495  -17.5979  1.001160 -0.000285 -0.000058 -0.000039  0.000165  0.000132  0.001372 -0.002385 -0.000000  0.000000
                                 0.000000  0.000000 -0.000000 -0.000000  0.000000 -0.000000  0.000000  0.000000 -0.000000 -0.000000
                                 0.000000  0.000000

   2.3   0     0.0463   -3.8130  0.059306  0.003328  0.034622 -0.041399  0.040963  1.041890  0.195294 -0.344923 -0.000000  0.000000
                                 0.000000 -0.000000 -0.000000  0.000000  0.000000 -0.000000 -0.000000 -0.000000 -0.000000  0.000000
                                 0.000000  0.000000

   3.3   0     0.2317   -4.3977 -0.993903  1.641099 -0.773080  0.413184 -0.297762 -1.483276 -1.369743  2.360837  0.000000 -0.000000
                                -0.000000  0.000000  0.000000 -0.000000 -0.000000  0.000000  0.000000 -0.000000  0.000000 -0.000000
                                 0.000000 -0.000000

                                   1 3d2-    1 3d2-    1 3d2-    1 3d2-    1 3d2-    1 3d2-    1 3d2-    1 5g2-    1 5g4-    1 5g2-
                                   1 5g4-    1 5g2-    1 5g4-

   1.4   2    -0.4539  -11.3475  1.001605 -0.000986 -0.000635  0.000074 -0.000179  0.000472 -0.002320  0.000000 -0.000000 -0.000000
                                 0.000000 -0.000000  0.000000

   2.4   0     0.1367   -2.8367 -0.340010 -0.035360  0.140830 -0.045714  1.127445 -0.047227  0.206472  0.000000 -0.000000 -0.000000
                                 0.000000 -0.000000  0.000000

   3.4   0     0.5852   -4.5546  1.003006  0.495893 -1.000065  0.310950 -0.793198  0.288228 -1.267591 -0.000000  0.000000  0.000000
                                -0.000000  0.000000 -0.000000

                                   1 2pz     1 2pz     1 2pz     1 2pz     1 2pz     1 2pz     1 2pz     1 2pz     1 4f0     1 4f2+
                                   1 4f0     1 4f2+    1 4f0     1 4f2+    1 4f0     1 4f2+    1 6h2+    1 6h4+    1 6h0     1 6h2+
                                   1 6h4+    1 6h0

   1.5   2    -2.7495  -17.5979  1.001160 -0.000285 -0.000058 -0.000039  0.000165  0.000132  0.001372 -0.002385  0.000000  0.000000
                                -0.000000 -0.000000  0.000000  0.000000 -0.000000 -0.000000  0.000000 -0.000000 -0.000000 -0.000000
                                 0.000000  0.000000

   2.5   0     0.0463   -3.8130  0.059306  0.003328  0.034622 -0.041399  0.040963  1.041890  0.195294 -0.344923  0.000000 -0.000000
                                -0.000000  0.000000  0.000000 -0.000000 -0.000000  0.000000 -0.000000 -0.000000 -0.000000  0.000000
                                 0.000000  0.000000

   3.5   0     0.2317   -4.3977 -0.993903  1.641099 -0.773080  0.413184 -0.297762 -1.483276 -1.369743  2.360837 -0.000000  0.000000
                                 0.000000  0.000000 -0.000000 -0.000000  0.000000 -0.000000  0.000000  0.000000  0.000000 -0.000000
                                -0.000000 -0.000000

                                   1 3d1+    1 3d1+    1 3d1+    1 3d1+    1 3d1+    1 3d1+    1 3d1+    1 5g1+    1 5g3+    1 5g1+
                                   1 5g3+    1 5g1+    1 5g3+

   1.6   2    -0.4539  -11.3475  1.001605 -0.000986 -0.000635  0.000074 -0.000179  0.000472 -0.002320  0.000000  0.000000 -0.000000
                                -0.000000 -0.000000 -0.000000

   2.6   0     0.1367   -2.8367 -0.340010 -0.035360  0.140830 -0.045714  1.127445 -0.047227  0.206472 -0.000000  0.000000  0.000000
                                 0.000000  0.000000  0.000000

   3.6   0     0.5852   -4.5546  1.003006  0.495893 -1.000065  0.310950 -0.793198  0.288228 -1.267591  0.000000  0.000000 -0.000000
                                -0.000000 -0.000000 -0.000000

                                   1 3d1-    1 3d1-    1 3d1-    1 3d1-    1 3d1-    1 3d1-    1 3d1-    1 5g1-    1 5g3-    1 5g1-
                                   1 5g3-    1 5g1-    1 5g3-

   1.7   2    -0.4539  -11.3475  1.001605 -0.000986 -0.000635  0.000074 -0.000179  0.000472 -0.002320  0.000000 -0.000000 -0.000000
                                 0.000000 -0.000000  0.000000

   2.7   0     0.1367   -2.8367 -0.340010 -0.035360  0.140830 -0.045714  1.127445 -0.047227  0.206472 -0.000000 -0.000000  0.000000
                                -0.000000  0.000000  0.000000

   3.7   0     0.5852   -4.5546  1.003006  0.495893 -1.000065  0.310950 -0.793198  0.288228 -1.267591  0.000000 -0.000000 -0.000000
                                 0.000000 -0.000000  0.000000

                                   1 4f2-    1 4f2-    1 4f2-    1 4f2-    1 6h4-    1 6h2-    1 6h4-    1 6h2-

   1.8   0     1.1633   -5.5558  0.348574 -0.242395  1.107743 -0.194921  0.000000  0.000000 -0.000000 -0.000000

   2.8   0     2.9348   -4.3881 -0.597519  1.638523 -1.001319  0.405685 -0.000000  0.000000  0.000000 -0.000000

 HOMO      4.1    -0.290938 =      -7.9168eV
 LUMO      2.2     0.046291 =       1.2596eV
 LUMO-HOMO         0.337229 =       9.1765eV


 **********************************************************************************************************************************
 DATASETS  * FILE   NREC   LENGTH (MB)   RECORD NAMES
              1      19       20.07       500      610      700      900      950      970     1000      129      960     1100
                                          VAR    BASINP    GEOM    SYMINP    ZMAT    AOBASIS   BASIS     P2S    ABASIS      S
                                         1400     1410     1420     1200     1210     1080     1600     1650     1700
                                           T        V       ECP      H0       H01     AOSYM     SMH    MOLCAS    OPER

              2       5        3.12       200      700     1000      520     4202
                                        OPTIONS   GEOM     BASIS   MCVARS     RHF

 PROGRAMS   *        TOTAL       RHF       INT
 CPU TIMES  *         2.11      0.17      1.59
 REAL TIME  *         3.05 SEC
 DISK USED  *       455.69 MB
 SF USED    *         0.01 MB
 GA USED    *         0.00 MB       (max)       0.00 MB       (current)
 **********************************************************************************************************************************
    -->
    <time start="15:22:04" end="15:22:06" cpu="2.11" system="0.46" real="3.05"/>
    <storage units="megabyte" memory="4097.84" sf="0.01" df="355.64" eaf="100.06" ga="0.0"/>
   </jobstep><!--
   --><jobstep command="POP" commandset="POP">
    <!--


 PROGRAM * POP (Mulliken population analysis)


 Density matrix read from record         4202.2  Type=RHF/CHARGE (state 1.1)

 Population analysis by basis function type

 Unique atom        s        p        d        f        g    Total    Charge
   1  AU      3.00000  6.00000 10.00000  0.00000  0.00000 19.00000  + 0.00000


 **********************************************************************************************************************************
 DATASETS  * FILE   NREC   LENGTH (MB)   RECORD NAMES
              1      19       20.07       500      610      700      900      950      970     1000      129      960     1100
                                          VAR    BASINP    GEOM    SYMINP    ZMAT    AOBASIS   BASIS     P2S    ABASIS      S
                                         1400     1410     1420     1200     1210     1080     1600     1650     1700
                                           T        V       ECP      H0       H01     AOSYM     SMH    MOLCAS    OPER

              2       5        3.12       200      700     1000      520     4202
                                        OPTIONS   GEOM     BASIS   MCVARS     RHF

 PROGRAMS   *        TOTAL       POP       RHF       INT
 CPU TIMES  *         2.12      0.00      0.17      1.59
 REAL TIME  *         3.06 SEC
 DISK USED  *       455.69 MB
 SF USED    *         0.01 MB
 GA USED    *         0.00 MB       (max)       0.00 MB       (current)
 **********************************************************************************************************************************
    -->
    <time start="15:22:06" end="15:22:06" cpu="0.01" system="0.01" real="0.01"/>
    <storage units="megabyte" memory="4097.84" sf="0.01" df="355.64" eaf="100.06" ga="0.0"/>
   </jobstep><!--
   --><jobstep command="MULTI" commandset="MULTI">
    <!--


 Current variables in basis input:

 Set= 1  S_PAR(1)            =       1.23400000
 Set= 1  S_PAR(2)            =       0.77230000
 Set= 1  P_PAR(1)            =       2.69370000
 Set= 1  P_PAR(2)            =       1.68570000
 Set= 1  D_PAR(1)            =       3.71490000
 Set= 1  D_PAR(2)            =       1.69200000
 Set= 1  F_PAR(1)            =       2.57740000
 Set= 1  G_PAR(1)            =       3.03680000
 Set= 1  H_PAR(1)            =       1.26720000

 PROGRAM * MULTI (Direct Multiconfiguration SCF)       Authors: P.J. Knowles, H.-J. Werner (1984)     S.T. Elbert (1988)


 Number of closed-shell orbitals:   9 (   3   1   1   1   1   1   1   0 )
 Number of active  orbitals:        1 (   1   0   0   0   0   0   0   0 )
 Number of external orbitals:     134 (  27  21  21  12  21  12  12   8 )

 State symmetry 1

 Orbital occupancy restrictions for symmetry 1
  1      1       2

 Number of electrons:     1    Spin symmetry=Doublet   Space symmetry=1
 Number of states:        1
 Number of CSFs:          1

 Maximum number of shells:             1
 Maximum number of spin couplings:     1

 Storage for configuration lists       2, coupling coefficients      1, address lists      7

 Molecular orbitals read from record     4202.2  Type=RHF/CANONICAL (state 1.1)
 *** IN SYMMETRY 1 ORBITAL  2 SYMMETRY CONTAMINATION OF 0.202D-02 HAS BEEN REMOVED
 *** IN SYMMETRY 1 ORBITAL  3 SYMMETRY CONTAMINATION OF 0.202D-02 HAS BEEN REMOVED

 EXTRA SYMMETRY OF MOS IN SYMMETRY 1:   1 3 2 1 1 2 3 1 3 2   3 2 1 6 5 4 3 2 1 6   5 4 3 2 6 4 5 1 3 2   1
 EXTRA SYMMETRY OF MOS IN SYMMETRY 2:   1 1 1 1 3 2 1 3 2 5   4 6 1 3 2 5 4 6 1 3   2 1
 EXTRA SYMMETRY OF MOS IN SYMMETRY 3:   1 1 1 1 3 2 1 3 2 5   4 6 1 3 2 5 4 6 1 3   2 1
 EXTRA SYMMETRY OF MOS IN SYMMETRY 4:   1 1 1 1 3 2 1 3 2 1   3 2 1
 EXTRA SYMMETRY OF MOS IN SYMMETRY 5:   1 1 1 1 3 2 1 3 2 5   4 6 1 3 2 5 6 4 1 3   2 1
 EXTRA SYMMETRY OF MOS IN SYMMETRY 6:   1 1 1 1 3 2 1 3 2 1   2 3 1
 EXTRA SYMMETRY OF MOS IN SYMMETRY 7:   1 1 1 1 3 2 1 3 2 1   2 3 1
 EXTRA SYMMETRY OF MOS IN SYMMETRY 8:   1 1 2 3 1 2 3 1

 Wavefunction dump at record             5202.2

 Convergence thresholds  0.10E-01 (gradient)  0.10E-05 (energy)  0.10E-02 (step length)

 Number of orbital rotations:      210   (     3 Core/Active    180 Core/Virtual   0 Active/Active     27 Active/Virtual)
 Total number of variables:        211


 ITER. MIC  NCI  NEG     ENERGY(VAR)     ENERGY(PROJ)   ENERGY CHANGE     GRAD(0)  GRAD(ORB)   GRAD(CI)     STEP       TIME

   1   22    4    0    -135.00612177    -135.00612177   -0.00000000    0.00000092 0.00000000 0.00000000  0.28D-05      0.15

 ** WVFN ****  CONVERGENCE REACHED, FINAL GRADIENT:  0.86D-12


 First order charge density matrix for state 1.1 saved on record  5202.2 (density set 1)

 Results for state 1.1
 =====================

 !MCSCF STATE 1.1 Energy             -135.006121767360
    --><property name="Energy" method="MCSCF" principal="true" stateSymmetry="1" stateNumber="1"
      value="-135.00612176736"/><!--
 Nuclear energy                         0.00000000
 Kinetic energy                        45.91534945
 One electron energy                 -239.32306599
 Two electron energy                  104.31694422
 Virial ratio                           3.94032657

 !MCSCF STATE 1.1 Dipole moment         0.00000000     0.00000000     0.00000000
 Dipole moment /Debye                   0.00000000     0.00000000     0.00000000
    --><property name="Dipole moment" method="MCSCF" principal="true" stateSymmetry="1"
      stateNumber="1" value="0.0 0.0 0.0"/><!--


 NATURAL ORBITALS
 ================

   Orb     Occ        Energy       Coefficients

                                   1 1s      1 1s      1 1s      1 1s      1 1s      1 1s      1 1s      1 1s      1 3d0     1 3d2+
                                   1 3d0     1 3d2+    1 3d0     1 3d2+    1 3d0     1 3d2+    1 3d0     1 3d2+    1 3d0     1 3d2+
                                   1 3d0     1 3d2+    1 5g0     1 5g4+    1 5g2+    1 5g0     1 5g4+    1 5g2+    1 5g0     1 5g4+
                                   1 5g2+

   1.1  2.00000    -4.681384     1.006418  0.002523 -0.002475  0.001947 -0.000064 -0.000847  0.014333 -0.019810  0.000000  0.000000
                                 0.000000  0.000000  0.000000  0.000000  0.000000  0.000000  0.000000  0.000000  0.000000  0.000000
                                 0.000000  0.000000  0.000000  0.000000  0.000000  0.000000  0.000000  0.000000  0.000000  0.000000
                                 0.000000

   2.1  2.00000    -0.453861     0.000000  0.000000  0.000000  0.000000  0.000000  0.000000  0.000000  0.000000  1.001605  0.000000
                                -0.000986  0.000000 -0.000635  0.000000  0.000074  0.000000 -0.000180  0.000000  0.000472  0.000000
                                -0.002320  0.000000  0.000000  0.000000  0.000000  0.000000  0.000000  0.000000  0.000000  0.000000
                                 0.000000

   3.1  2.00000    -0.453861     0.000000  0.000000  0.000000  0.000000  0.000000  0.000000  0.000000  0.000000  0.000000  1.001605
                                 0.000000 -0.000986  0.000000 -0.000635  0.000000  0.000074  0.000000 -0.000180  0.000000  0.000472
                                 0.000000 -0.002320  0.000000  0.000000  0.000000  0.000000  0.000000  0.000000  0.000000  0.000000
                                 0.000000

   4.1  1.00000    -0.143142    -0.001277  0.999476  0.000442 -0.000423 -0.000010  0.000198 -0.002839  0.003924  0.000000  0.000000
                                 0.000000  0.000000  0.000000  0.000000  0.000000  0.000000  0.000000  0.000000  0.000000  0.000000
                                 0.000000  0.000000  0.000000  0.000000  0.000000  0.000000  0.000000  0.000000  0.000000  0.000000
                                 0.000000

                                   1 2px     1 2px     1 2px     1 2px     1 2px     1 2px     1 2px     1 2px     1 4f1+    1 4f3+
                                   1 4f1+    1 4f3+    1 4f1+    1 4f3+    1 4f1+    1 4f3+    1 6h1+    1 6h3+    1 6h5+    1 6h1+
                                   1 6h3+    1 6h5+

   1.2  2.00000    -2.749477     1.001160 -0.000285 -0.000058 -0.000039  0.000165  0.000132  0.001372 -0.002385  0.000000  0.000000
                                 0.000000  0.000000  0.000000  0.000000  0.000000  0.000000  0.000000  0.000000  0.000000  0.000000
                                 0.000000  0.000000

                                   1 2py     1 2py     1 2py     1 2py     1 2py     1 2py     1 2py     1 2py     1 4f1-    1 4f3-
                                   1 4f1-    1 4f3-    1 4f1-    1 4f3-    1 4f1-    1 4f3-    1 6h1-    1 6h3-    1 6h5-    1 6h1-
                                   1 6h3-    1 6h5-

   1.3  2.00000    -2.749477     1.001160 -0.000285 -0.000058 -0.000039  0.000165  0.000132  0.001372 -0.002385  0.000000  0.000000
                                 0.000000  0.000000  0.000000  0.000000  0.000000  0.000000  0.000000  0.000000  0.000000  0.000000
                                 0.000000  0.000000

                                   1 3d2-    1 3d2-    1 3d2-    1 3d2-    1 3d2-    1 3d2-    1 3d2-    1 5g2-    1 5g4-    1 5g2-
                                   1 5g4-    1 5g2-    1 5g4-

   1.4  2.00000    -0.453861     1.001605 -0.000986 -0.000635  0.000074 -0.000180  0.000472 -0.002320  0.000000  0.000000  0.000000
                                 0.000000  0.000000  0.000000

                                   1 2pz     1 2pz     1 2pz     1 2pz     1 2pz     1 2pz     1 2pz     1 2pz     1 4f0     1 4f2+
                                   1 4f0     1 4f2+    1 4f0     1 4f2+    1 4f0     1 4f2+    1 6h2+    1 6h4+    1 6h0     1 6h2+
                                   1 6h4+    1 6h0

   1.5  2.00000    -2.749477     1.001160 -0.000285 -0.000058 -0.000039  0.000165  0.000132  0.001372 -0.002385  0.000000  0.000000
                                 0.000000  0.000000  0.000000  0.000000  0.000000  0.000000  0.000000  0.000000  0.000000  0.000000
                                 0.000000  0.000000

                                   1 3d1+    1 3d1+    1 3d1+    1 3d1+    1 3d1+    1 3d1+    1 3d1+    1 5g1+    1 5g3+    1 5g1+
                                   1 5g3+    1 5g1+    1 5g3+

   1.6  2.00000    -0.453861     1.001605 -0.000986 -0.000635  0.000074 -0.000180  0.000472 -0.002320  0.000000  0.000000  0.000000
                                 0.000000  0.000000  0.000000

                                   1 3d1-    1 3d1-    1 3d1-    1 3d1-    1 3d1-    1 3d1-    1 3d1-    1 5g1-    1 5g3-    1 5g1-
                                   1 5g3-    1 5g1-    1 5g3-

   1.7  2.00000    -0.453861     1.001605 -0.000986 -0.000635  0.000074 -0.000180  0.000472 -0.002320  0.000000  0.000000  0.000000
                                 0.000000  0.000000  0.000000


 EXTRA SYMMETRY OF MOS IN SYMMETRY 1:   1 2 3 1 1 2 3 1 3 2   3 2 1 6 4 5 3 2 1 6   4 5 3 2 6 4 5 1 3 2   1
 EXTRA SYMMETRY OF MOS IN SYMMETRY 3:   1 1 1 1 3 2 1 3 2 5   4 6 1 3 2 5 4 6 1 2   3 1
 EXTRA SYMMETRY OF MOS IN SYMMETRY 4:   1 1 1 1 2 3 1 2 3 1   3 2 1
 EXTRA SYMMETRY OF MOS IN SYMMETRY 5:   1 1 1 1 2 3 1 3 2 6   5 4 1 3 2 6 5 4 1 3   2 1
 EXTRA SYMMETRY OF MOS IN SYMMETRY 6:   1 1 1 1 2 3 1 2 3 1   2 3 1
 EXTRA SYMMETRY OF MOS IN SYMMETRY 7:   1 1 1 1 2 3 1 2 3 1   2 3 1
 EXTRA SYMMETRY OF MOS IN SYMMETRY 8:   1 1 3 2 1 2 3 1

 Natural orbital dump at molpro section  5202.2    (Orbital set 2)


 CI vector
 =========

 /             1.0000000


 **********************************************************************************************************************************
 DATASETS  * FILE   NREC   LENGTH (MB)   RECORD NAMES
              1      20       21.90       500      610      700      900      950      970     1000      129      960     1100
                                          VAR    BASINP    GEOM    SYMINP    ZMAT    AOBASIS   BASIS     P2S    ABASIS      S
                                         1400     1410     1420     1200     1210     1080     1600     1650     1700     1380
                                           T        V       ECP      H0       H01     AOSYM     SMH    MOLCAS    OPER     JKOP

              2       6        5.73       200      700     1000      520     4202     5202
                                        OPTIONS   GEOM     BASIS   MCVARS     RHF     MCSCF

 PROGRAMS   *        TOTAL     MULTI       POP       RHF       INT
 CPU TIMES  *         2.40      0.27      0.00      0.17      1.59
 REAL TIME  *         3.49 SEC
 DISK USED  *       455.69 MB
 SF USED    *        10.46 MB
 GA USED    *         0.00 MB       (max)       0.00 MB       (current)
 **********************************************************************************************************************************
    -->
    <time start="15:22:06" end="15:22:07" cpu="0.28" system="0.03" real="0.43"/>
    <storage units="megabyte" memory="4097.84" sf="10.46" df="355.64" eaf="100.06" ga="0.0"/>
   </jobstep><!--
   --><jobstep command="RHF-SCF" commandset="SCFPRO">
    <!--


 Current variables in basis input:

 Set= 1  S_PAR(1)            =       1.23400000
 Set= 1  S_PAR(2)            =       0.77230000
 Set= 1  P_PAR(1)            =       2.69370000
 Set= 1  P_PAR(2)            =       1.68570000
 Set= 1  D_PAR(1)            =       3.71490000
 Set= 1  D_PAR(2)            =       1.69200000
 Set= 1  F_PAR(1)            =       2.57740000
 Set= 1  G_PAR(1)            =       3.03680000
 Set= 1  H_PAR(1)            =       1.26720000

 PROGRAM * RHF-SCF (OPEN SHELL)       Authors: W. Meyer, H.-J. Werner


 NUMBER OF ELECTRONS:      10+    9-    SPACE SYMMETRY=1    SPIN SYMMETRY: Doublet
 CONVERGENCE THRESHOLDS:    1.00E-05 (Density)    1.00E-07 (Energy)
 MAX. NUMBER OF ITERATIONS:        0
 INTERPOLATION TYPE:            DIIS
 INTERPOLATION STEPS:              2 (START)      1 (STEP)
 LEVEL SHIFTS:                 -0.60 (CLOSED) -0.30 (OPEN)


 Singly occupied orbitals:      4.1

 Extra symmetries of mos in symmetry 1:   1   3   2   1
 Molecular orbitals read from record     5202.2  Type=MCSCF/NATURAL (state 1.1)

 Molecular orbital dump at record        2101.2

 ITERATION    DDIFF          GRAD             ENERGY        2-EL.EN.            DIPOLE MOMENTS         DIIS   ORB.
    1      0.000D+00      0.000D+00      -135.00612177    208.633888    0.00000    0.00000    0.00000    0    start

 Final alpha occupancy:   4   1   1   1   1   1   1   0
 Final beta  occupancy:   3   1   1   1   1   1   1   0

 !RHF STATE 1.1 Energy               -135.006121767360
    --><property name="Energy" method="RHF" principal="true" stateSymmetry="1" stateNumber="1"
      value="-135.00612176736"/><!--
 Nuclear energy                         0.00000000
 One-electron energy                 -239.32306599
 Two-electron energy                  104.31694422
 Virial quotient                       -2.94032657
 !RHF STATE 1.1 Dipole moment           0.00000000     0.00000000     0.00000000
 Dipole moment /Debye                   0.00000000     0.00000000     0.00000000
    --><property name="Dipole moment" method="RHF" principal="true" stateSymmetry="1"
      stateNumber="1" value="0.0 0.0 0.0"/><!--

 ELECTRON ORBITALS
 =================


   Orb  Occ    Energy  Couls-En    Coefficients

                                   1 1s      1 1s      1 1s      1 1s      1 1s      1 1s      1 1s      1 1s      1 3d0     1 3d2+
                                   1 3d0     1 3d2+    1 3d0     1 3d2+    1 3d0     1 3d2+    1 3d0     1 3d2+    1 3d0     1 3d2+
                                   1 3d0     1 3d2+    1 5g0     1 5g4+    1 5g2+    1 5g0     1 5g4+    1 5g2+    1 5g0     1 5g4+
                                   1 5g2+

   1.1   2    -4.6814  -21.9144  1.006418  0.002523 -0.002475  0.001947 -0.000064 -0.000847  0.014333 -0.019810  0.000000  0.000000
                                 0.000000  0.000000  0.000000  0.000000  0.000000  0.000000  0.000000  0.000000  0.000000  0.000000
                                 0.000000  0.000000  0.000000  0.000000  0.000000  0.000000  0.000000  0.000000  0.000000  0.000000
                                 0.000000

   2.1   2    -0.4539  -11.3475  0.000000  0.000000  0.000000  0.000000  0.000000  0.000000  0.000000  0.000000  0.000000  1.001605
                                 0.000000 -0.000986  0.000000 -0.000635  0.000000  0.000074  0.000000 -0.000180  0.000000  0.000472
                                 0.000000 -0.002320  0.000000  0.000000  0.000000  0.000000  0.000000  0.000000  0.000000  0.000000
                                 0.000000

   3.1   2    -0.4539  -11.3475  0.000000  0.000000  0.000000  0.000000  0.000000  0.000000  0.000000  0.000000  1.001605  0.000000
                                -0.000986  0.000000 -0.000635  0.000000  0.000074  0.000000 -0.000180  0.000000  0.000472  0.000000
                                -0.002320  0.000000  0.000000  0.000000  0.000000  0.000000  0.000000  0.000000  0.000000  0.000000
                                 0.000000

   4.1   +    -0.1431   -6.9730 -0.001277  0.999476  0.000442 -0.000423 -0.000010  0.000198 -0.002839  0.003924  0.000000  0.000000
                                 0.000000  0.000000  0.000000  0.000000  0.000000  0.000000  0.000000  0.000000  0.000000  0.000000
                                 0.000000  0.000000  0.000000  0.000000  0.000000  0.000000  0.000000  0.000000  0.000000  0.000000
                                 0.000000

                                   1 2px     1 2px     1 2px     1 2px     1 2px     1 2px     1 2px     1 2px     1 4f1+    1 4f3+
                                   1 4f1+    1 4f3+    1 4f1+    1 4f3+    1 4f1+    1 4f3+    1 6h1+    1 6h3+    1 6h5+    1 6h1+
                                   1 6h3+    1 6h5+

   1.2   2    -2.7495  -17.5979  1.001160 -0.000285 -0.000058 -0.000039  0.000165  0.000132  0.001372 -0.002385  0.000000  0.000000
                                 0.000000  0.000000  0.000000  0.000000  0.000000  0.000000  0.000000  0.000000  0.000000  0.000000
                                 0.000000  0.000000

                                   1 2py     1 2py     1 2py     1 2py     1 2py     1 2py     1 2py     1 2py     1 4f1-    1 4f3-
                                   1 4f1-    1 4f3-    1 4f1-    1 4f3-    1 4f1-    1 4f3-    1 6h1-    1 6h3-    1 6h5-    1 6h1-
                                   1 6h3-    1 6h5-

   1.3   2    -2.7495  -17.5979  1.001160 -0.000285 -0.000058 -0.000039  0.000165  0.000132  0.001372 -0.002385  0.000000  0.000000
                                 0.000000  0.000000  0.000000  0.000000  0.000000  0.000000  0.000000  0.000000  0.000000  0.000000
                                 0.000000  0.000000

                                   1 3d2-    1 3d2-    1 3d2-    1 3d2-    1 3d2-    1 3d2-    1 3d2-    1 5g2-    1 5g4-    1 5g2-
                                   1 5g4-    1 5g2-    1 5g4-

   1.4   2    -0.4539  -11.3475  1.001605 -0.000986 -0.000635  0.000074 -0.000180  0.000472 -0.002320  0.000000  0.000000  0.000000
                                 0.000000  0.000000  0.000000

                                   1 2pz     1 2pz     1 2pz     1 2pz     1 2pz     1 2pz     1 2pz     1 2pz     1 4f0     1 4f2+
                                   1 4f0     1 4f2+    1 4f0     1 4f2+    1 4f0     1 4f2+    1 6h2+    1 6h4+    1 6h0     1 6h2+
                                   1 6h4+    1 6h0

   1.5   2    -2.7495  -17.5979  1.001160 -0.000285 -0.000058 -0.000039  0.000165  0.000132  0.001372 -0.002385  0.000000  0.000000
                                 0.000000  0.000000  0.000000  0.000000  0.000000  0.000000  0.000000  0.000000  0.000000  0.000000
                                 0.000000  0.000000

                                   1 3d1+    1 3d1+    1 3d1+    1 3d1+    1 3d1+    1 3d1+    1 3d1+    1 5g1+    1 5g3+    1 5g1+
                                   1 5g3+    1 5g1+    1 5g3+

   1.6   2    -0.4539  -11.3475  1.001605 -0.000986 -0.000635  0.000074 -0.000180  0.000472 -0.002320  0.000000  0.000000  0.000000
                                 0.000000  0.000000  0.000000

                                   1 3d1-    1 3d1-    1 3d1-    1 3d1-    1 3d1-    1 3d1-    1 3d1-    1 5g1-    1 5g3-    1 5g1-
                                   1 5g3-    1 5g1-    1 5g3-

   1.7   2    -0.4539  -11.3475  1.001605 -0.000986 -0.000635  0.000074 -0.000180  0.000472 -0.002320  0.000000  0.000000  0.000000
                                 0.000000  0.000000  0.000000

 HOMO      4.1    -0.143142 =      -3.8951eV
 LUMO      2.2     0.058940 =       1.6038eV
 LUMO-HOMO         0.202082 =       5.4989eV


 **********************************************************************************************************************************
 DATASETS  * FILE   NREC   LENGTH (MB)   RECORD NAMES
              1      20       21.90       500      610      700      900      950      970     1000      129      960     1100
                                          VAR    BASINP    GEOM    SYMINP    ZMAT    AOBASIS   BASIS     P2S    ABASIS      S
                                         1400     1410     1420     1200     1210     1080     1600     1650     1700     1380
                                           T        V       ECP      H0       H01     AOSYM     SMH    MOLCAS    OPER     JKOP

              2       7        8.33       200      700     1000      520     4202     5202     2101
                                        OPTIONS   GEOM     BASIS   MCVARS     RHF     MCSCF     RHF

 PROGRAMS   *        TOTAL       RHF     MULTI       POP       RHF       INT
 CPU TIMES  *         2.49      0.09      0.27      0.00      0.17      1.59
 REAL TIME  *         3.61 SEC
 DISK USED  *       455.69 MB
 SF USED    *        10.46 MB
 GA USED    *         0.00 MB       (max)       0.00 MB       (current)
 **********************************************************************************************************************************
    -->
    <time start="15:22:07" end="15:22:07" cpu="0.09" system="0.01" real="0.12"/>
    <storage units="megabyte" memory="4097.84" sf="10.46" df="355.64" eaf="100.06" ga="0.0"/>
   </jobstep><!--
   --><jobstep command="DATA" commandset="DATA">
    <!--


 RECORD   4202.2 RENAMED TO   4302.2


 **********************************************************************************************************************************
 DATASETS  * FILE   NREC   LENGTH (MB)   RECORD NAMES
              1      20       21.90       500      610      700      900      950      970     1000      129      960     1100
                                          VAR    BASINP    GEOM    SYMINP    ZMAT    AOBASIS   BASIS     P2S    ABASIS      S
                                         1400     1410     1420     1200     1210     1080     1600     1650     1700     1380
                                           T        V       ECP      H0       H01     AOSYM     SMH    MOLCAS    OPER     JKOP

              2       7        8.33       200      700     1000      520     4302     5202     2101
                                        OPTIONS   GEOM     BASIS   MCVARS     RHF     MCSCF     RHF

 PROGRAMS   *        TOTAL      DATA       RHF     MULTI       POP       RHF       INT
 CPU TIMES  *         2.50      0.00      0.09      0.27      0.00      0.17      1.59
 REAL TIME  *         3.61 SEC
 DISK USED  *       455.69 MB
 SF USED    *        10.46 MB
 GA USED    *         0.00 MB       (max)       0.00 MB       (current)
 **********************************************************************************************************************************
    -->
    <time start="15:22:07" end="15:22:07" cpu="0.01" system="0.0" real="0.0"/>
    <storage units="megabyte" memory="4097.84" sf="10.46" df="355.64" eaf="100.06" ga="0.0"/>
   </jobstep><!--
   --><jobstep command="DATA" commandset="DATA">
    <!--


 RECORD   5202.2 RENAMED TO   5302.2


 **********************************************************************************************************************************
 DATASETS  * FILE   NREC   LENGTH (MB)   RECORD NAMES
              1      20       21.90       500      610      700      900      950      970     1000      129      960     1100
                                          VAR    BASINP    GEOM    SYMINP    ZMAT    AOBASIS   BASIS     P2S    ABASIS      S
                                         1400     1410     1420     1200     1210     1080     1600     1650     1700     1380
                                           T        V       ECP      H0       H01     AOSYM     SMH    MOLCAS    OPER     JKOP

              2       7        8.33       200      700     1000      520     4302     5302     2101
                                        OPTIONS   GEOM     BASIS   MCVARS     RHF     MCSCF     RHF

 PROGRAMS   *        TOTAL      DATA      DATA       RHF     MULTI       POP       RHF       INT
 CPU TIMES  *         2.50      0.00      0.00      0.09      0.27      0.00      0.17      1.59
 REAL TIME  *         3.62 SEC
 DISK USED  *       455.69 MB
 SF USED    *        10.46 MB
 GA USED    *         0.00 MB       (max)       0.00 MB       (current)
 **********************************************************************************************************************************
    -->
    <time start="15:22:07" end="15:22:07" cpu="0.0" system="0.0" real="0.01"/>
    <storage units="megabyte" memory="4097.84" sf="10.46" df="355.64" eaf="100.06" ga="0.0"/>
   </jobstep><!--
   --><jobstep command="CI" commandset="CIPRO">
    <!--


 Current variables in basis input:

 Set= 1  S_PAR(1)            =       1.23400000
 Set= 1  S_PAR(2)            =       0.77230000
 Set= 1  P_PAR(1)            =       2.69370000
 Set= 1  P_PAR(2)            =       1.68570000
 Set= 1  D_PAR(1)            =       3.71490000
 Set= 1  D_PAR(2)            =       1.69200000
 Set= 1  F_PAR(1)            =       2.57740000
 Set= 1  G_PAR(1)            =       3.03680000
 Set= 1  H_PAR(1)            =       1.26720000

 PROGRAM * CI (Multireference internally contracted CI)     Authors: H.-J. Werner, P.J. Knowles, 1987


 Convergence thresholds:  THRVAR = 1.00D-08  THRDEN = 1.00D-06

 Number of optimized states:  1  Roots:   1
 Number of reference states:  1  Roots:   1

 Reference symmetry:                   1   Doublet
 Number of electrons:                 19
 Maximum number of shells:             3
 Maximum number of spin couplings:     5

 Reference space:        1 conf        1 CSFs
 N elec internal:       10 conf       10 CSFs
 N-1 el internal:       55 conf      100 CSFs
 N-2 el internal:       54 conf      216 CSFs

 Number of electrons in valence space:                     19
 Maximum number of open shell orbitals in reference space:  1
 Maximum number of open shell orbitals in internal spaces:  5


 Number of closed-shell orbitals:   9 (   3   1   1   1   1   1   1   0 )
 Number of active  orbitals:        1 (   1   0   0   0   0   0   0   0 )
 Number of external orbitals:     134 (  27  21  21  12  21  12  12   8 )

 Molecular orbitals read from record     2101.2  Type=RHF/CANONICAL (state 1.1)

 Valence orbitals related to previous ones by unitary transformation. Operators transformed.

 Number of p-space configurations:   1

 Reference wavefunction optimized for reference space (refopt=1)

 State     Reference Energy
   1        -135.00612177

 Number of blocks in overlap matrix:    99   Smallest eigenvalue:  0.10D+01
 Number of N-2 electron functions:      99
 Number of N-1 electron functions:     100

 Number of internal configurations:                    4
 Number of singly external configurations:          1830
 Number of doubly external configurations:        113973
 Total number of contracted configurations:       115807
 Total number of uncontracted configurations:     247663

 Diagonal Coupling coefficients finished.               Storage:   12280 words, CPU-Time:      0.00 seconds.
 Energy denominators for pairs finished in 1 passes.    Storage:   65437 words, CPU-time:      0.01 seconds.

  ITER. STATE  ROOT     SQ.NORM     CORR.ENERGY   TOTAL ENERGY   ENERGY CHANGE       DEN1      VAR(S)    VAR(P)      TIME
    1     1     1     1.00000000     0.00000000  -135.00612177     0.00000000    -0.81676123  0.31D-02  0.16D+00     0.33
    2     1     1     1.10003871    -0.64277889  -135.64890066    -0.64277889    -0.02007885  0.87D-03  0.32D-02     1.04
    3     1     1     1.09065582    -0.66135267  -135.66747444    -0.01857378    -0.00025685  0.44D-04  0.26D-04     2.02
    4     1     1     1.09088248    -0.66158623  -135.66770800    -0.00023357    -0.00000996  0.17D-05  0.13D-05     2.87
    5     1     1     1.09096437    -0.66159640  -135.66771817    -0.00001017    -0.00000036  0.60D-07  0.61D-07     3.79
    6     1     1     1.09100843    -0.66159680  -135.66771857    -0.00000040    -0.00000002  0.13D-08  0.30D-08     4.76


 =====================================
 Analysis of CPU times by interactions
 =====================================

       I      S      P

 I   0.0%
 S   2.5%   1.3%
 P  48.3%   6.9%   6.1%

 Initialization:   2.3%
 Other:           32.6%

 Total CPU:        4.8 seconds
 =====================================



 Reference coefficients greater than 0.0500000
 =============================================
 222/222222           0.9573808



 RESULTS FOR STATE 1.1
 =====================

 Coefficient of reference function:   C(0) = 0.95738082 (fixed)   0.95738082 (relaxed)

 Energy contributions of configuration classes

 CLASS          SQ.NORM        ECORR1        ECORR2
 +++++++++++++++++++++++++++++++++++++++++++++++++++
 Internals    0.00000564    0.00000000   -0.00000342
 Singles      0.00243604   -0.00650381   -0.00743765
 Pairs        0.08857290   -0.65509299   -0.65415573
 Total        1.09101458   -0.66159680   -0.66159680
 +++++++++++++++++++++++++++++++++++++++++++++++++++


 Reference energy                    -135.00612177
 Nuclear energy                         0.00000000
 Kinetic energy                        46.25120220
 One electron energy                 -238.78618322
 Two electron energy                  103.11846466
 Virial quotient                       -2.93327983
 Correlation energy                    -0.66159680
 !CI(SD) STATE 1.1 Energy            -135.667718565860
    --><property name="Energy" method="CI(SD)" principal="true" stateSymmetry="1"
      stateNumber="1" value="-135.66771856586"/><!--

 Properties without orbital relaxation:

 !CI(SD) STATE 1.1 Dipole moment        0.00000000     0.00000000     0.00000000
 Dipole moment /Debye                   0.00000000     0.00000000     0.00000000
    --><property name="Dipole moment" method="CI(SD)" principal="true" stateSymmetry="1"
      stateNumber="1" value="0.0 0.0 0.0"/><!--

 Cluster corrected energies          -135.72793352 (Davidson, fixed reference)
 Cluster corrected energies          -135.72793352 (Davidson, relaxed reference)

 Cluster corrected energies          -135.72526609 (Pople, fixed reference)
 Cluster corrected energies          -135.72526609 (Pople, relaxed reference)



 **********************************************************************************************************************************
 DATASETS  * FILE   NREC   LENGTH (MB)   RECORD NAMES
              1      20       21.90       500      610      700      900      950      970     1000      129      960     1100
                                          VAR    BASINP    GEOM    SYMINP    ZMAT    AOBASIS   BASIS     P2S    ABASIS      S
                                         1400     1410     1420     1200     1210     1080     1600     1650     1700     1380
                                           T        V       ECP      H0       H01     AOSYM     SMH    MOLCAS    OPER     JKOP

              2       7        8.33       200      700     1000      520     4302     5302     2101
                                        OPTIONS   GEOM     BASIS   MCVARS     RHF     MCSCF     RHF

 PROGRAMS   *        TOTAL        CI      DATA      DATA       RHF     MULTI       POP       RHF       INT
 CPU TIMES  *         7.81      5.29      0.00      0.00      0.09      0.27      0.00      0.17      1.59
 REAL TIME  *        12.90 SEC
 DISK USED  *       455.69 MB
 SF USED    *        14.86 MB
 GA USED    *         0.00 MB       (max)       0.00 MB       (current)
 **********************************************************************************************************************************
    -->
    <time start="15:22:07" end="15:22:16" cpu="5.31" system="0.11" real="9.28"/>
    <storage units="megabyte" memory="4097.84" sf="14.86" df="355.64" eaf="100.06" ga="0.0"/>
   </jobstep><!--
 SETTING EVAL           =      -135.66771857  AU

 BFGS update of inverse hessian


 Calculating numerical derivatives: forward displacement for variable 1 of  9


 Running procedure=OPT_BASIS
 SETTING BASIS          =    USERDEF
   --><jobstep command="RHF-SCF" commandset="SCFPRO">
    <!--


 Current variables in basis input:

 Set= 1  S_PAR(1)            =       1.23523400
 Set= 1  S_PAR(2)            =       0.77230000
 Set= 1  P_PAR(1)            =       2.69370000
 Set= 1  P_PAR(2)            =       1.68570000
 Set= 1  D_PAR(1)            =       3.71490000
 Set= 1  D_PAR(2)            =       1.69200000
 Set= 1  F_PAR(1)            =       2.57740000
 Set= 1  G_PAR(1)            =       3.03680000
 Set= 1  H_PAR(1)            =       1.26720000

 Recomputing integrals since basis changed


 Using spherical harmonics



 PROGRAM * SEWARD (Integral evaluation for generally contracted gaussian basis sets)     Author: Roland Lindh, 1990

 Geometry written to block  1 of record 700

 Orientation using atomic masses
 Molecule type: Atom
 Symmetry elements: X,Y,Z
 Rotational constants:       0.0000000      0.0000000      0.0000000 GHz  (calculated with average atomic masses)

 Point group  D2h



 ATOMIC COORDINATES

 NR  ATOM    CHARGE       X              Y              Z

   1  AU     19.00    0.000000000    0.000000000    0.000000000


          AU  CORE POTENTIAL

          g POTENTIAL

[...]
                              0.245784    -0.295272
                              0.136384     0.422872
                              0.075678     0.403024
                              0.041993     0.035907
   16.1 Ag    1  3d2+        49.279958     0.000761
                             27.345106    -0.002013
                             15.173609    -0.003185
                              8.419730    -0.029720
                              4.672050     0.640288
                              2.592488    -1.977592
                              1.438554     0.570186
                              0.798243     2.052667
                              0.442940    -1.774404
                              0.245784    -0.295272
                              0.136384     0.422872
                              0.075678     0.403024
                              0.041993     0.035907
   17.1 Ag    1  3d0         49.279958     0.000000
                             27.345106     0.000000
                             15.173609     0.000000
                              8.419730     0.000000
                              4.672050     0.000000
                              2.592488     0.000000
                              1.438554     0.000000
                              0.798243     0.000000
                              0.442940     0.000000
                              0.245784     0.000000
                              0.136384     0.000000
                              0.075678     0.000000
                              0.041993     1.000000
   18.1 Ag    1  3d2+        49.279958     0.000000
                             27.345106     0.000000
                             15.173609     0.000000
                              8.419730     0.000000
                              4.672050     0.000000
                              2.592488     0.000000
                              1.438554     0.000000
                              0.798243     0.000000
                              0.442940     0.000000
                              0.245784     0.000000
                              0.136384     0.000000
                              0.075678     0.000000
                              0.041993     1.000000
   19.1 Ag    1  3d0          3.714900     1.000000
   20.1 Ag    1  3d2+         3.714900     1.000000
   21.1 Ag    1  3d0          1.692000     1.000000
   22.1 Ag    1  3d2+         1.692000     1.000000
   23.1 Ag    1  5g0          2.362115     1.000000
   24.1 Ag    1  5g4+         2.362115     1.000000
   25.1 Ag    1  5g2+         2.362115     1.000000
   26.1 Ag    1  5g0          0.894749     1.000000
   27.1 Ag    1  5g4+         0.894749     1.000000
   28.1 Ag    1  5g2+         0.894749     1.000000
   29.1 Ag    1  5g0          3.036800     1.000000
   30.1 Ag    1  5g4+         3.036800     1.000000
   31.1 Ag    1  5g2+         3.036800     1.000000
    1.2 B3u   1  2px         78.542818     0.000137   -0.000178   -0.000205    0.003965    0.017998    0.000000
    2.2 B3u                  41.429605    -0.000508    0.000822    0.000926   -0.019465   -0.087943    0.000000
    3.2 B3u                  21.853204    -0.004642    0.000761    0.002117    0.065370    0.278747    0.000000
    4.2 B3u                  11.527083     0.084821   -0.044189   -0.069501   -0.241186   -0.874779    0.000000
    5.2 B3u                   6.080282    -0.325006    0.187638    0.282640    0.622965    2.518648    0.000000
    6.2 B3u                   3.207215     0.026103   -0.008202    0.116135    0.168322   -3.870311    0.000000
                              1.691735     0.521552   -0.412309   -1.254795   -3.385317    0.893409    0.000000
                              0.892353     0.443256   -0.396189    0.003371    4.305941    4.522885    0.000000
                              0.470697     0.178236    0.212335    1.473058   -0.970392   -7.140992    0.000000
                              0.248282     0.021703    0.583458    0.055366   -1.701447    4.928889    0.000000
                              0.130963     0.006551    0.371497   -0.730411    0.691105   -1.048923    0.000000
                              0.069080    -0.001264    0.078421   -0.325634    0.519993   -0.260752    0.000000
                              0.036438     0.000487    0.004772   -0.024197    0.056938   -0.295455    1.000000
    7.2 B3u   1  2px          2.693700     1.000000
    8.2 B3u   1  2px          1.685700     1.000000
    9.2 B3u   1  4f1+         1.994156     1.000000
   10.2 B3u   1  4f3+         1.994156     1.000000
   11.2 B3u   1  4f1+         0.876501     1.000000
   12.2 B3u   1  4f3+         0.876501     1.000000
   13.2 B3u   1  4f1+         0.385253     1.000000
   14.2 B3u   1  4f3+         0.385253     1.000000
   15.2 B3u   1  4f1+         2.577400     1.000000
   16.2 B3u   1  4f3+         2.577400     1.000000
   17.2 B3u   1  6h1+         1.963806     1.000000
   18.2 B3u   1  6h3+         1.963806     1.000000
   19.2 B3u   1  6h5+         1.963806     1.000000
   20.2 B3u   1  6h1+         1.267200     1.000000
   21.2 B3u   1  6h3+         1.267200     1.000000
   22.2 B3u   1  6h5+         1.267200     1.000000
    1.3 B2u   1  2py         78.542818     0.000137   -0.000178   -0.000205    0.003965    0.017998    0.000000
    2.3 B2u                  41.429605    -0.000508    0.000822    0.000926   -0.019465   -0.087943    0.000000
    3.3 B2u                  21.853204    -0.004642    0.000761    0.002117    0.065370    0.278747    0.000000
    4.3 B2u                  11.527083     0.084821   -0.044189   -0.069501   -0.241186   -0.874779    0.000000
    5.3 B2u                   6.080282    -0.325006    0.187638    0.282640    0.622965    2.518648    0.000000
    6.3 B2u                   3.207215     0.026103   -0.008202    0.116135    0.168322   -3.870311    0.000000
                              1.691735     0.521552   -0.412309   -1.254795   -3.385317    0.893409    0.000000
                              0.892353     0.443256   -0.396189    0.003371    4.305941    4.522885    0.000000
                              0.470697     0.178236    0.212335    1.473058   -0.970392   -7.140992    0.000000
                              0.248282     0.021703    0.583458    0.055366   -1.701447    4.928889    0.000000
                              0.130963     0.006551    0.371497   -0.730411    0.691105   -1.048923    0.000000
                              0.069080    -0.001264    0.078421   -0.325634    0.519993   -0.260752    0.000000
                              0.036438     0.000487    0.004772   -0.024197    0.056938   -0.295455    1.000000
    7.3 B2u   1  2py          2.693700     1.000000
    8.3 B2u   1  2py          1.685700     1.000000
    9.3 B2u   1  4f1-         1.994156     1.000000
   10.3 B2u   1  4f3-         1.994156     1.000000
   11.3 B2u   1  4f1-         0.876501     1.000000
   12.3 B2u   1  4f3-         0.876501     1.000000
   13.3 B2u   1  4f1-         0.385253     1.000000
   14.3 B2u   1  4f3-         0.385253     1.000000
   15.3 B2u   1  4f1-         2.577400     1.000000
   16.3 B2u   1  4f3-         2.577400     1.000000
   17.3 B2u   1  6h1-         1.963806     1.000000
   18.3 B2u   1  6h3-         1.963806     1.000000
   19.3 B2u   1  6h5-         1.963806     1.000000
   20.3 B2u   1  6h1-         1.267200     1.000000
   21.3 B2u   1  6h3-         1.267200     1.000000
   22.3 B2u   1  6h5-         1.267200     1.000000
    1.4 B1g   1  3d2-        49.279958     0.000688   -0.000828   -0.000447    0.000761    0.000000
    2.4 B1g                  27.345106    -0.003808    0.004639    0.003130   -0.002013    0.000000
    3.4 B1g                  15.173609     0.014465   -0.018104   -0.015273   -0.003185    0.000000
    4.4 B1g                   8.419730    -0.025143    0.032697    0.017951   -0.029720    0.000000
    5.4 B1g                   4.672050    -0.076979    0.104271    0.245262    0.640288    0.000000
                              2.592488     0.131790   -0.195658   -0.529108   -1.977592    0.000000
                              1.438554     0.271828   -0.495151   -0.881386    0.570186    0.000000
                              0.798243     0.326047   -0.283091    0.829583    2.052667    0.000000
                              0.442940     0.254021    0.251562    0.765746   -1.774404    0.000000
                              0.245784     0.176388    0.431950   -0.267981   -0.295272    0.000000
                              0.136384     0.077763    0.289043   -0.487977    0.422872    0.000000
                              0.075678     0.025410    0.097154   -0.206665    0.403024    0.000000
                              0.041993     0.001610    0.011940   -0.026578    0.035907    1.000000
    6.4 B1g   1  3d2-         3.714900     1.000000
    7.4 B1g   1  3d2-         1.692000     1.000000
    8.4 B1g   1  5g2-         2.362115     1.000000
    9.4 B1g   1  5g4-         2.362115     1.000000
   10.4 B1g   1  5g2-         0.894749     1.000000
   11.4 B1g   1  5g4-         0.894749     1.000000
   12.4 B1g   1  5g2-         3.036800     1.000000
   13.4 B1g   1  5g4-         3.036800     1.000000
    1.5 B1u   1  2pz         78.542818     0.000137   -0.000178   -0.000205    0.003965    0.017998    0.000000
    2.5 B1u                  41.429605    -0.000508    0.000822    0.000926   -0.019465   -0.087943    0.000000
    3.5 B1u                  21.853204    -0.004642    0.000761    0.002117    0.065370    0.278747    0.000000
    4.5 B1u                  11.527083     0.084821   -0.044189   -0.069501   -0.241186   -0.874779    0.000000
    5.5 B1u                   6.080282    -0.325006    0.187638    0.282640    0.622965    2.518648    0.000000
    6.5 B1u                   3.207215     0.026103   -0.008202    0.116135    0.168322   -3.870311    0.000000
                              1.691735     0.521552   -0.412309   -1.254795   -3.385317    0.893409    0.000000
                              0.892353     0.443256   -0.396189    0.003371    4.305941    4.522885    0.000000
                              0.470697     0.178236    0.212335    1.473058   -0.970392   -7.140992    0.000000
                              0.248282     0.021703    0.583458    0.055366   -1.701447    4.928889    0.000000
                              0.130963     0.006551    0.371497   -0.730411    0.691105   -1.048923    0.000000
                              0.069080    -0.001264    0.078421   -0.325634    0.519993   -0.260752    0.000000
                              0.036438     0.000487    0.004772   -0.024197    0.056938   -0.295455    1.000000
    7.5 B1u   1  2pz          2.693700     1.000000
    8.5 B1u   1  2pz          1.685700     1.000000
    9.5 B1u   1  4f0          1.994156     1.000000
   10.5 B1u   1  4f2+         1.994156     1.000000
   11.5 B1u   1  4f0          0.876501     1.000000
   12.5 B1u   1  4f2+         0.876501     1.000000
   13.5 B1u   1  4f0          0.385253     1.000000
   14.5 B1u   1  4f2+         0.385253     1.000000
   15.5 B1u   1  4f0          2.577400     1.000000
   16.5 B1u   1  4f2+         2.577400     1.000000
   17.5 B1u   1  6h2+         1.963806     1.000000
   18.5 B1u   1  6h4+         1.963806     1.000000
   19.5 B1u   1  6h0          1.963806     1.000000
   20.5 B1u   1  6h2+         1.267200     1.000000
   21.5 B1u   1  6h4+         1.267200     1.000000
   22.5 B1u   1  6h0          1.267200     1.000000
    1.6 B2g   1  3d1+        49.279958     0.000688   -0.000828   -0.000447    0.000761    0.000000
    2.6 B2g                  27.345106    -0.003808    0.004639    0.003130   -0.002013    0.000000
    3.6 B2g                  15.173609     0.014465   -0.018104   -0.015273   -0.003185    0.000000
    4.6 B2g                   8.419730    -0.025143    0.032697    0.017951   -0.029720    0.000000
    5.6 B2g                   4.672050    -0.076979    0.104271    0.245262    0.640288    0.000000
                              2.592488     0.131790   -0.195658   -0.529108   -1.977592    0.000000
                              1.438554     0.271828   -0.495151   -0.881386    0.570186    0.000000
                              0.798243     0.326047   -0.283091    0.829583    2.052667    0.000000
                              0.442940     0.254021    0.251562    0.765746   -1.774404    0.000000
                              0.245784     0.176388    0.431950   -0.267981   -0.295272    0.000000
                              0.136384     0.077763    0.289043   -0.487977    0.422872    0.000000
                              0.075678     0.025410    0.097154   -0.206665    0.403024    0.000000
                              0.041993     0.001610    0.011940   -0.026578    0.035907    1.000000
    6.6 B2g   1  3d1+         3.714900     1.000000
    7.6 B2g   1  3d1+         1.692000     1.000000
    8.6 B2g   1  5g1+         2.362115     1.000000
    9.6 B2g   1  5g3+         2.362115     1.000000
   10.6 B2g   1  5g1+         0.894749     1.000000
   11.6 B2g   1  5g3+         0.894749     1.000000
   12.6 B2g   1  5g1+         3.036800     1.000000
   13.6 B2g   1  5g3+         3.036800     1.000000
    1.7 B3g   1  3d1-        49.279958     0.000688   -0.000828   -0.000447    0.000761    0.000000
    2.7 B3g                  27.345106    -0.003808    0.004639    0.003130   -0.002013    0.000000
    3.7 B3g                  15.173609     0.014465   -0.018104   -0.015273   -0.003185    0.000000
    4.7 B3g                   8.419730    -0.025143    0.032697    0.017951   -0.029720    0.000000
    5.7 B3g                   4.672050    -0.076979    0.104271    0.245262    0.640288    0.000000
                              2.592488     0.131790   -0.195658   -0.529108   -1.977592    0.000000
                              1.438554     0.271828   -0.495151   -0.881386    0.570186    0.000000
                              0.798243     0.326047   -0.283091    0.829583    2.052667    0.000000
                              0.442940     0.254021    0.251562    0.765746   -1.774404    0.000000
                              0.245784     0.176388    0.431950   -0.267981   -0.295272    0.000000
                              0.136384     0.077763    0.289043   -0.487977    0.422872    0.000000
                              0.075678     0.025410    0.097154   -0.206665    0.403024    0.000000
                              0.041993     0.001610    0.011940   -0.026578    0.035907    1.000000
    6.7 B3g   1  3d1-         3.714900     1.000000
    7.7 B3g   1  3d1-         1.692000     1.000000
    8.7 B3g   1  5g1-         2.362115     1.000000
    9.7 B3g   1  5g3-         2.362115     1.000000
   10.7 B3g   1  5g1-         0.894749     1.000000
   11.7 B3g   1  5g3-         0.894749     1.000000
   12.7 B3g   1  5g1-         3.036800     1.000000
   13.7 B3g   1  5g3-         3.036800     1.000000
    1.8 Au    1  4f2-         1.994156     1.000000
    2.8 Au    1  4f2-         0.876501     1.000000
    3.8 Au    1  4f2-         0.385253     1.000000
    4.8 Au    1  4f2-         2.577400     1.000000
    5.8 Au    1  6h4-         1.963806     1.000000
    6.8 Au    1  6h2-         1.963806     1.000000
    7.8 Au    1  6h4-         1.267200     1.000000
    8.8 Au    1  6h2-         1.267200     1.000000

 NUCLEAR CHARGE:                   19
 NUMBER OF PRIMITIVE AOS:         277
 NUMBER OF SYMMETRY AOS:          212
 NUMBER OF CONTRACTIONS:          144   (  31Ag  +  22B3u +  22B2u +  13B1g +  22B1u +  13B2g +  13B3g +   8Au  )
 NUMBER OF CORE ORBITALS:           4   (   1Ag  +   1B3u +   1B2u +   0B1g +   1B1u +   0B2g +   0B3g +   0Au  )
 NUMBER OF VALENCE ORBITALS:        6   (   3Ag  +   0B3u +   0B2u +   1B1g +   0B1u +   1B2g +   1B3g +   0Au  )


 NUCLEAR REPULSION ENERGY    0.00000000

 EXTRA SYMMETRY OF AOS IN SYMMETRY 1:   1 1 1 1 1 1 1 1 2 3   2 3 2 3 2 3 2 3 2 3   2 3 4 5 6 4 5 6 4 5   6
 EXTRA SYMMETRY OF AOS IN SYMMETRY 2:   1 1 1 1 1 1 1 1 2 3   2 3 2 3 2 3 4 5 6 4   5 6
 EXTRA SYMMETRY OF AOS IN SYMMETRY 3:   1 1 1 1 1 1 1 1 2 3   2 3 2 3 2 3 4 5 6 4   5 6
 EXTRA SYMMETRY OF AOS IN SYMMETRY 4:   1 1 1 1 1 1 1 2 3 2   3 2 3
 EXTRA SYMMETRY OF AOS IN SYMMETRY 5:   1 1 1 1 1 1 1 1 2 3   2 3 2 3 2 3 4 5 6 4   5 6
 EXTRA SYMMETRY OF AOS IN SYMMETRY 6:   1 1 1 1 1 1 1 2 3 2   3 2 3
 EXTRA SYMMETRY OF AOS IN SYMMETRY 7:   1 1 1 1 1 1 1 2 3 2   3 2 3
 EXTRA SYMMETRY OF AOS IN SYMMETRY 8:   1 1 1 1 2 3 2 3

 Eigenvalues of metric

         1 0.421E-04 0.815E-03 0.815E-03 0.168E-01 0.262E-01 0.262E-01 0.262E-01 0.948E-01
         2 0.297E-03 0.121E-01 0.121E-01 0.812E-01 0.131E+00 0.143E+00 0.143E+00 0.143E+00
         3 0.297E-03 0.121E-01 0.121E-01 0.812E-01 0.131E+00 0.143E+00 0.143E+00 0.143E+00
         4 0.815E-03 0.262E-01 0.262E-01 0.153E+00 0.291E+00 0.689E+00 0.689E+00 0.998E+00
         5 0.297E-03 0.121E-01 0.121E-01 0.812E-01 0.131E+00 0.143E+00 0.143E+00 0.143E+00
         6 0.815E-03 0.262E-01 0.262E-01 0.153E+00 0.291E+00 0.689E+00 0.689E+00 0.998E+00
         7 0.815E-03 0.262E-01 0.262E-01 0.153E+00 0.291E+00 0.689E+00 0.689E+00 0.998E+00
         8 0.121E-01 0.143E+00 0.143E+00 0.202E+00 0.108E+01 0.186E+01 0.186E+01 0.270E+01


 Contracted 2-electron integrals neglected if value below      1.0D-12
 AO integral compression algorithm  1   Integral accuracy      1.0D-12

     55.575 MB (compressed) written to integral file ( 59.3%)

     Node minimum: 1.835 MB, node maximum: 6.554 MB


 NUMBER OF SORTED TWO-ELECTRON INTEGRALS:     473601.     BUFFER LENGTH:  32768
 NUMBER OF SEGMENTS:   1  SEGMENT LENGTH:     473601      RECORD LENGTH: 524288

 Memory used in sort:       1.03 MW

 SORT1 READ    11599838. AND WROTE      332946. INTEGRALS IN      1 RECORDS. CPU TIME:     0.32 SEC, REAL TIME:     0.34 SEC
 SORT2 READ     4948094. AND WROTE     7063297. INTEGRALS IN    240 RECORDS. CPU TIME:     0.03 SEC, REAL TIME:     0.08 SEC

 Node minimum:      452710.  Node maximum:      487861. integrals

 OPERATOR DM      FOR CENTER  0  COORDINATES:    0.000000    0.000000    0.000000


 **********************************************************************************************************************************
 DATASETS  * FILE   NREC   LENGTH (MB)   RECORD NAMES
              1      19       20.06       500      610      700      900      950      970     1001      129      960     1100
                                          VAR    BASINP    GEOM    SYMINP    ZMAT    AOBASIS   BASIS     P2S    ABASIS      S
                                         1400     1410     1420     1200     1210     1080     1600     1650     1700
                                           T        V       ECP      H0       H01     AOSYM     SMH    MOLCAS    OPER

              2       8        8.40       200      700     1000      520     4302     5302     2101     1001
                                        OPTIONS   GEOM     BASIS   MCVARS     RHF     MCSCF     RHF     BASIS

 PROGRAMS   *        TOTAL       INT        CI      DATA      DATA       RHF     MULTI       POP       RHF       INT
 CPU TIMES  *         9.49      1.67      5.29      0.00      0.00      0.09      0.27      0.00      0.17      1.59
 REAL TIME  *        14.80 SEC
 DISK USED  *       554.69 MB
 SF USED    *        14.86 MB
 GA USED    *         0.00 MB       (max)       0.00 MB       (current)
 **********************************************************************************************************************************


 PROGRAM * RHF-SCF (OPEN SHELL)       Authors: W. Meyer, H.-J. Werner


 NUMBER OF ELECTRONS:      10+    9-    SPACE SYMMETRY=1    SPIN SYMMETRY: Doublet
 CONVERGENCE THRESHOLDS:    1.00E-05 (Density)    1.00E-07 (Energy)
 MAX. NUMBER OF ITERATIONS:       60
 INTERPOLATION TYPE:            DIIS
 INTERPOLATION STEPS:              2 (START)      1 (STEP)
 LEVEL SHIFTS:                 -0.60 (CLOSED) -0.30 (OPEN)


 Singly occupied orbitals:      4.1

