
 Primary working directories    : /global/cscratch1/sd/bkincaid
 Secondary working directories  : /global/cscratch1/sd/bkincaid
 Wavefunction directory         : /global/homes/b/bkincaid/wfu/
 Main file repository           : /global/cscratch1/sd/bkincaid/

 SHA1      : 19cd028119e0e09f93f0674bd8af7968d9b3eff6
 NAME      : 2015.1.36
 ARCHNAME  : linux/x86_64
 FC        : /opt/cray/pe/craype/2.5.14/bin/ftn
 BLASLIB   : -L/opt/intel/compilers_and_libraries_2018.1.163/linux/mkl/lib/intel64 -Wl,-_start-group -lmkl_intel_ilp64 -lmkl_intel_thread -lmkl_core -Wl,-_end-group -liomp5
 id        : lbl

 Nodes     nprocs
 nid00762    23
 Number of processes for MPI-2 version of Molpro:   nprocs(total)=   24   nprocs(compute)=   23   nprocs(helper)=    1

 Using customized tuning parameters: mindgm=7; mindgv=16; mindgc=1; mindgr=1; noblas=0; minvec=7
 default implementation of scratch files=sf  

 ***,Calculation for H groundstate
 memory,512,m
 gthresh,twoint=1.0E-12
 gthresh,throvl=1.0E-12
                                                                                 !symmetry,nosym
 
 set,dkroll=1,dkho=10,dkhp=4
 
 basis={
 Including file /global/u1/b/bkincaid/molpro/Pd/molecules/PdH/5z/ae/H/H-aug-cc-pV5Z.basis
 }
 
 ne = 1
 
 geometry={
 1
 Hydrogen
 H 0.0 0.0 0.0
 }
 {rhf;
  wf,1,1,1;
  occ,1,0,0,0,0,0,0,0;
  open,1.1;
 }
 
 scf=energy
 _CC_NORM_MAX=2.0
 {rccsd(t);maxit,100;core}
 ccsd=energy
 
 
 table,scf,ccsd
 save
 type,csv

 Variables initialized (889), CPU time= 0.00 sec
 Commands  initialized (702), CPU time= 0.01 sec, 572 directives.
 Default parameters read. Elapsed time= 0.23 sec

 Checking input...
 Passed
1


                                         ***  PROGRAM SYSTEM MOLPRO  ***
                                       Copyright, TTI GmbH Stuttgart, 2015
                                    Version 2015.1 linked Dec 29 2018 15:55:43


 **********************************************************************************************************************************
 LABEL *   Calculation for H groundstate                                                 
  64 bit mpp version                                                                     DATE: 14-Dec-20          TIME: 10:41:26  
 **********************************************************************************************************************************

 SHA1:             19cd028119e0e09f93f0674bd8af7968d9b3eff6
 **********************************************************************************************************************************

 THRESHOLDS:

 ZERO    =  1.00D-12  ONEINT  =  1.00D-12  TWOINT  =  1.00D-12  PREFAC  =  1.00D-14  LOCALI  =  1.00D-09  EORDER  =  1.00D-04
 ENERGY  =  0.00D+00  ETEST   =  0.00D+00  EDENS   =  0.00D+00  THRDEDEF=  1.00D-06  GRADIENT=  1.00D-02  STEP    =  1.00D-03
 ORBITAL =  1.00D-05  CIVEC   =  1.00D-05  COEFF   =  1.00D-04  PRINTCI =  5.00D-02  PUNCHCI =  9.90D+01  OPTGRAD =  3.00D-04
 OPTENERG=  1.00D-06  OPTSTEP =  3.00D-04  THRGRAD =  1.00D-10  COMPRESS=  1.00D-11  VARMIN  =  1.00D-07  VARMAX  =  1.00D-03
 THRDOUB =  0.00D+00  THRDIV  =  1.00D-05  THRRED  =  1.00D-07  THRPSP  =  1.00D+00  THRDC   =  1.00D-10  THRCS   =  1.00D-10
 THRNRM  =  1.00D-08  THREQ   =  0.00D+00  THRDE   =  1.00D+00  THRREF  =  1.00D-05  SPARFAC =  1.00D+00  THRDLP  =  1.00D-07
 THRDIA  =  1.00D-10  THRDLS  =  1.00D-07  THRGPS  =  0.00D+00  THRKEX  =  0.00D+00  THRDIS  =  2.00D-01  THRVAR  =  1.00D-10
 THRLOC  =  1.00D-06  THRGAP  =  1.00D-06  THRLOCT = -1.00D+00  THRGAPT = -1.00D+00  THRORB  =  1.00D-06  THRMLTP =  0.00D+00
 THRCPQCI=  1.00D-10  KEXTA   =  0.00D+00  THRCOARS=  0.00D+00  SYMTOL  =  1.00D-06  GRADTOL =  1.00D-06  THROVL  =  1.00D-08
 THRORTH =  1.00D-08  GRID    =  1.00D-06  GRIDMAX =  1.00D-03  DTMAX   =  0.00D+00  THROCCDE=  1.00D-01  THROCCDE=  1.00D-01



 THRESHOLDS:

 ZERO    =  1.00D-12  ONEINT  =  1.00D-12  TWOINT  =  1.00D-12  PREFAC  =  1.00D-14  LOCALI  =  1.00D-09  EORDER  =  1.00D-04
 ENERGY  =  0.00D+00  ETEST   =  0.00D+00  EDENS   =  0.00D+00  THRDEDEF=  1.00D-06  GRADIENT=  1.00D-02  STEP    =  1.00D-03
 ORBITAL =  1.00D-05  CIVEC   =  1.00D-05  COEFF   =  1.00D-04  PRINTCI =  5.00D-02  PUNCHCI =  9.90D+01  OPTGRAD =  3.00D-04
 OPTENERG=  1.00D-06  OPTSTEP =  3.00D-04  THRGRAD =  1.00D-10  COMPRESS=  1.00D-11  VARMIN  =  1.00D-07  VARMAX  =  1.00D-03
 THRDOUB =  0.00D+00  THRDIV  =  1.00D-05  THRRED  =  1.00D-07  THRPSP  =  1.00D+00  THRDC   =  1.00D-10  THRCS   =  1.00D-10
 THRNRM  =  1.00D-08  THREQ   =  0.00D+00  THRDE   =  1.00D+00  THRREF  =  1.00D-05  SPARFAC =  1.00D+00  THRDLP  =  1.00D-07
 THRDIA  =  1.00D-10  THRDLS  =  1.00D-07  THRGPS  =  0.00D+00  THRKEX  =  0.00D+00  THRDIS  =  2.00D-01  THRVAR  =  1.00D-10
 THRLOC  =  1.00D-06  THRGAP  =  1.00D-06  THRLOCT = -1.00D+00  THRGAPT = -1.00D+00  THRORB  =  1.00D-06  THRMLTP =  0.00D+00
 THRCPQCI=  1.00D-10  KEXTA   =  0.00D+00  THRCOARS=  0.00D+00  SYMTOL  =  1.00D-06  GRADTOL =  1.00D-06  THROVL  =  1.00D-12
 THRORTH =  1.00D-08  GRID    =  1.00D-06  GRIDMAX =  1.00D-03  DTMAX   =  0.00D+00  THROCCDE=  1.00D-01  THROCCDE=  1.00D-01


 SETTING DKROLL         =         1.00000000                                  
 SETTING DKHO           =        10.00000000                                  
 SETTING DKHP           =         4.00000000                                  

 Variable memory set to  512000000 words,  buffer space   230000 words

 SETTING BASIS          =    USERDEF
 SETTING NE             =         1.00000000                                  

Geometry recognized as XYZ



 Recomputing integrals since basis changed


 Using spherical harmonics



 PROGRAM * SEWARD (Integral evaluation for generally contracted gaussian basis sets)     Author: Roland Lindh, 1990

 Geometry written to block  1 of record 700

 Orientation using atomic masses  
 Molecule type: Atom
 Symmetry elements: X,Y,Z
 Rotational constants:       0.0000000      0.0000000      0.0000000 GHz  (calculated with average atomic masses)

 Point group  D2h 



 ATOMIC COORDINATES

 NR  ATOM    CHARGE       X              Y              Z

   1  H       1.00    0.000000000    0.000000000    0.000000000

 NUCLEAR CHARGE:                    1
 NUMBER OF PRIMITIVE AOS:         112
 NUMBER OF SYMMETRY AOS:           87
 NUMBER OF CONTRACTIONS:           80   (  20Ag  +  11B3u +  11B2u +   8B1g +  11B1u +   8B2g +   8B3g +   3Au  )
 NUMBER OF CORE ORBITALS:           0   (   0Ag  +   0B3u +   0B2u +   0B1g +   0B1u +   0B2g +   0B3g +   0Au  )
 NUMBER OF VALENCE ORBITALS:        1   (   1Ag  +   0B3u +   0B2u +   0B1g +   0B1u +   0B2g +   0B3g +   0Au  )


 NUCLEAR REPULSION ENERGY    0.00000000

 One-electron integrals computed with SEWARD

 10nd-order Douglas-Kroll-Hess method activated. McWeeny DKH parametrization is used.

 Computing Douglas-Kroll / X2C integrals

 AO integral compression algorithm  1   Integral accuracy      1.0D-12

     9.175 MB (compressed) written to integral file (100.0%)

     Node minimum: 0.262 MB, node maximum: 0.786 MB


 NUMBER OF SORTED TWO-ELECTRON INTEGRALS:      28764.     BUFFER LENGTH:  32768
 NUMBER OF SEGMENTS:   1  SEGMENT LENGTH:      28764      RECORD LENGTH: 524288

 Memory used in sort:       0.59 MW

 SORT1 READ     1269256. AND WROTE       21930. INTEGRALS IN      1 RECORDS. CPU TIME:     0.30 SEC, REAL TIME:     0.32 SEC
 SORT2 READ      521266. AND WROTE      701058. INTEGRALS IN     23 RECORDS. CPU TIME:     0.00 SEC, REAL TIME:     0.02 SEC

 Node minimum:       22422.  Node maximum:       34668. integrals

 OPERATOR DM      FOR CENTER  0  COORDINATES:    0.000000    0.000000    0.000000

 EXTRA SYMMETRY OF AOS IN SYMMETRY 1:   1 1 1 1 1 1 2 3 2 3   2 3 2 3 4 5 6 4 5 6
 EXTRA SYMMETRY OF AOS IN SYMMETRY 2:   1 1 1 1 1 2 3 2 3 2   3
 EXTRA SYMMETRY OF AOS IN SYMMETRY 3:   1 1 1 1 1 2 3 2 3 2   3
 EXTRA SYMMETRY OF AOS IN SYMMETRY 4:   1 1 1 1 2 3 2 3
 EXTRA SYMMETRY OF AOS IN SYMMETRY 5:   1 1 1 1 1 2 3 2 3 2   3
 EXTRA SYMMETRY OF AOS IN SYMMETRY 6:   1 1 1 1 2 3 2 3
 EXTRA SYMMETRY OF AOS IN SYMMETRY 7:   1 1 1 1 2 3 2 3

 Eigenvalues of metric

         1 0.884E-03 0.102E-01 0.620E-01 0.895E-01 0.895E-01 0.310E+00 0.382E+00 0.382E+00
         2 0.421E-01 0.170E+00 0.239E+00 0.239E+00 0.558E+00 0.854E+00 0.854E+00 0.145E+01
         3 0.421E-01 0.170E+00 0.239E+00 0.239E+00 0.558E+00 0.854E+00 0.854E+00 0.145E+01
         4 0.895E-01 0.382E+00 0.491E+00 0.491E+00 0.115E+01 0.151E+01 0.151E+01 0.237E+01
         5 0.421E-01 0.170E+00 0.239E+00 0.239E+00 0.558E+00 0.854E+00 0.854E+00 0.145E+01
         6 0.895E-01 0.382E+00 0.491E+00 0.491E+00 0.115E+01 0.151E+01 0.151E+01 0.237E+01
         7 0.895E-01 0.382E+00 0.491E+00 0.491E+00 0.115E+01 0.151E+01 0.151E+01 0.237E+01
         8 0.239E+00 0.854E+00 0.191E+01


 **********************************************************************************************************************************
 DATASETS  * FILE   NREC   LENGTH (MB)   RECORD NAMES
              1      22       19.95       500      610      700      900      950      970     1000      129      960     1700   
                                          VAR    BASINP    GEOM    SYMINP    ZMAT    AOBASIS   BASIS     P2S    ABASIS    OPER   
                                         1101     1401     1411     1412     1650     1100     1400     1410     1200     1210   
                                          SR      EKINR    POTR     PVPR    MOLCAS      S      EKIN      POT      H0       H01  
                                         1080     1600   
                                         AOSYM     SMH  

 PROGRAMS   *        TOTAL       INT
 CPU TIMES  *         1.96      1.28
 REAL TIME  *         3.50 SEC
 DISK USED  *       102.88 MB      
 GA USED    *         0.00 MB       (max)       0.00 MB       (current)
 **********************************************************************************************************************************


 PROGRAM * RHF-SCF (OPEN SHELL)       Authors: W. Meyer, H.-J. Werner


 NUMBER OF ELECTRONS:       1+    0-    SPACE SYMMETRY=1    SPIN SYMMETRY: Doublet 
 CONVERGENCE THRESHOLDS:    1.00E-05 (Density)    1.00E-07 (Energy)
 MAX. NUMBER OF ITERATIONS:       60
 INTERPOLATION TYPE:            DIIS
 INTERPOLATION STEPS:              2 (START)      1 (STEP)
 LEVEL SHIFTS:                 -0.60 (CLOSED) -0.30 (OPEN) 


 Singly occupied orbitals:      1.1
 Orbital guess generated from atomic densities. Full valence occupancy:    1   0   0   0   0   0   0   0


 Molecular orbital dump at record        2100.2

 ITERATION    DDIFF          GRAD             ENERGY        2-EL.EN.            DIPOLE MOMENTS         DIIS   ORB.
    1      0.000D+00      0.000D+00        -0.48854663     -0.000000    0.00000    0.00000    0.00000    0    start
    2      0.000D+00      0.872D-02        -0.49610791      0.000000    0.00000    0.00000    0.00000    1    diag,B
    3      0.719D-02      0.476D-02        -0.49966687     -0.000000    0.00000    0.00000    0.00000    2    diag,B
    4      0.764D-02      0.620D-03        -0.49972904      0.000000    0.00000    0.00000    0.00000    3    diag,B
    5      0.771D-03      0.107D-03        -0.49973065      0.000000    0.00000    0.00000    0.00000    4    diag,B
    6      0.144D-03      0.186D-04        -0.49973070     -0.000000    0.00000    0.00000    0.00000    5    diag,B
    7      0.349D-04      0.361D-05        -0.49973070     -0.000000    0.00000    0.00000    0.00000    6    fixocc
    8      0.129D-04      0.281D-06        -0.49973070      0.000000    0.00000    0.00000    0.00000    7    diag,B
    9      0.116D-05      0.739D-09        -0.49973070      0.000000    0.00000    0.00000    0.00000    0    orth

 Final alpha occupancy:   1   0   0   0   0   0   0   0
 Final beta  occupancy:   0   0   0   0   0   0   0   0

 !RHF STATE 1.1 Energy                 -0.499730699109
 Nuclear energy                         0.00000000
 One-electron energy                   -0.49973070
 Two-electron energy                    0.00000000
 Virial quotient                       -1.00159250
 !RHF STATE 1.1 Dipole moment           0.00000000     0.00000000     0.00000000
 Dipole moment /Debye                   0.00000000     0.00000000     0.00000000

 Orbital energies:

         1.1          2.1          3.1
     -0.499731     0.049999     0.269806

         1.2          2.2
      0.169836     0.653089

         1.3          2.3
      0.169836     0.653089

         1.4          2.4
      0.541944     1.785121

         1.5          2.5
      0.169836     0.653089

         1.6          2.6
      0.541944     1.785121

         1.7          2.7
      0.541944     1.785121

         1.8          2.8
      1.693918     5.405080

 HOMO      1.1    -0.499731 =     -13.5984eV
 LUMO      2.1     0.049999 =       1.3605eV
 LUMO-HOMO         0.549729 =      14.9589eV


 **********************************************************************************************************************************
 DATASETS  * FILE   NREC   LENGTH (MB)   RECORD NAMES
              1      22       19.95       500      610      700      900      950      970     1000      129      960     1700   
                                          VAR    BASINP    GEOM    SYMINP    ZMAT    AOBASIS   BASIS     P2S    ABASIS    OPER   
                                         1101     1401     1411     1412     1650     1100     1400     1410     1200     1210   
                                          SR      EKINR    POTR     PVPR    MOLCAS      S      EKIN      POT      H0       H01  
                                         1080     1600   
                                         AOSYM     SMH  

              2       4        2.78       700     1000      520     2100   
                                         GEOM     BASIS   MCVARS     RHF  

 PROGRAMS   *        TOTAL       RHF       INT
 CPU TIMES  *         3.28      1.27      1.28
 REAL TIME  *         4.93 SEC
 DISK USED  *       630.09 MB      
 SF USED    *         0.00 MB      
 GA USED    *         0.00 MB       (max)       0.00 MB       (current)
 **********************************************************************************************************************************
 SETTING SCF            =        -0.49973070  AU                              
 SETTING _CC_NORM_MAX   =         2.00000000                                  


 PROGRAM * CCSD (Restricted open-shell coupled cluster)     Authors: C. Hampel, H.-J. Werner, 1991, M. Deegan, P.J. Knowles, 1992


 Convergence thresholds:  THRVAR = 1.00D-08  THRDEN = 1.00D-06

 CCSD(T)     terms to be evaluated (factor= 1.000)


 Number of active  orbitals:        1 (   1   0   0   0   0   0   0   0 )
 Number of external orbitals:      79 (  19  11  11   8  11   8   8   3 )

 Memory could be reduced to 0.76 Mwords without degradation in triples

 Number of N-1 electron functions:               1
 Number of N-2 electron functions:               0
 Number of singly external CSFs:                20
 Number of doubly external CSFs:                 0
 Total number of CSFs:                          20

 Molecular orbitals read from record     2100.2  Type=RHF/CANONICAL (state 1.1)

 Integral transformation finished. Total CPU:   0.01 sec, npass=  1  Memory used:   0.11 MW

 Starting RMP2 calculation

 Wavefunction is spin-projected

 ITER.      SQ.NORM     CORR.ENERGY   TOTAL ENERGY   ENERGY CHANGE        DEN1      VAR(S)    VAR(P)  DIIS     TIME
   1      1.00000000    -0.00000000    -0.49973070     0.00000000    -0.00000000  0.31D-19  0.00D+00  1  1     0.02

 Norm of t1 vector:      0.00000000      S-energy:    -0.00000000      T1 diagnostic:  0.00000000
 Norm of t2 vector:      0.00000000      P-energy:     0.00000000
                                         Alpha-Beta:   0.00000000
                                         Alpha-Alpha:  0.00000000
                                         Beta-Beta:    0.00000000

 Spin contamination <S**2-Sz**2-Sz>     0.00000000
  Reference energy                     -0.499730699109
  RHF-RMP2 correlation energy          -0.000000000000
 !RHF-RMP2 energy                      -0.499730699109
 (NB above energy spin projected)

 Starting RCCSD calculation

 ITER.      SQ.NORM     CORR.ENERGY   TOTAL ENERGY   ENERGY CHANGE        DEN1      VAR(S)    VAR(P)  DIIS     TIME
   1      1.00000000    -0.00000000    -0.49973070     0.00000000    -0.00000000  0.26D-17  0.00D+00  1  1     0.02

 Norm of t1 vector:      0.00000000      S-energy:    -0.00000000      T1 diagnostic:  0.00000000
                                                                       D1 diagnostic:  0.00000000
 Norm of t2 vector:      0.00000000      P-energy:     0.00000000
                                         Alpha-Beta:   0.00000000
                                         Alpha-Alpha:  0.00000000
                                         Beta-Beta:    0.00000000

 Spin contamination <S**2-Sz**2-Sz>     0.00000000

 Memory could be reduced to 0.77 Mwords without degradation in triples
 

 RESULTS
 =======

  Reference energy                     -0.499730699109
  RCCSD singles energy                 -0.000000000000
  RCCSD pair energy                     0.000000000000
  RCCSD correlation energy             -0.000000000000
  Triples (T) contribution              0.000000000000
  Total correlation energy             -0.000000000000
 
  RHF-RCCSD energy                     -0.499730699109
  RHF-RCCSD[T] energy                  -0.499730699109
  RHF-RCCSD-T energy                   -0.499730699109
 !RHF-RCCSD(T) energy                  -0.499730699109

 Program statistics:

 Available memory in ccsd:               511999882
 Min. memory needed in ccsd:                 26245
 Max. memory used in ccsd:                   26245
 Max. memory used in cckext:                 51828 ( 1 integral passes)
 Max. memory used in cckint:                107039 ( 1 integral passes)



 **********************************************************************************************************************************
 DATASETS  * FILE   NREC   LENGTH (MB)   RECORD NAMES
              1      22       19.95       500      610      700      900      950      970     1000      129      960     1700   
                                          VAR    BASINP    GEOM    SYMINP    ZMAT    AOBASIS   BASIS     P2S    ABASIS    OPER   
                                         1101     1401     1411     1412     1650     1100     1400     1410     1200     1210   
                                          SR      EKINR    POTR     PVPR    MOLCAS      S      EKIN      POT      H0       H01  
                                         1080     1600   
                                         AOSYM     SMH  

              2       4        2.78       700     1000      520     2100   
                                         GEOM     BASIS   MCVARS     RHF  

 PROGRAMS   *        TOTAL  RCCSD(T)       RHF       INT
 CPU TIMES  *         3.45      0.08      1.27      1.28
 REAL TIME  *         5.25 SEC
 DISK USED  *       630.09 MB      
 SF USED    *         1.78 MB      
 GA USED    *         0.00 MB       (max)       0.00 MB       (current)
 **********************************************************************************************************************************
 SETTING CCSD           =        -0.49973070  AU                              
 Output type csv         
                                                                                                                                                                                                                                                                

      SCF,CCSD
   -0.49973070,   -0.49973070
                                                  

 RCCSD(T)/USERDEF energy=     -0.499730699109

        RCCSD(T)        RHF-SCF 
     -0.49973070     -0.49973070
 **********************************************************************************************************************************
 Molpro calculation terminated
 Variable memory released
