/global/cscratch1/sd/bkincaid/cutoffs/Mo/50-250/runs/scf_140

     Program PWSCF v.6.4.1 starts on 17Jan2022 at 22:43:47 

     This program is part of the open-source Quantum ESPRESSO suite
     for quantum simulation of materials; please cite
         "P. Giannozzi et al., J. Phys.:Condens. Matter 21 395502 (2009);
         "P. Giannozzi et al., J. Phys.:Condens. Matter 29 465901 (2017);
          URL http://www.quantum-espresso.org", 
     in publications or presentations arising from this work. More details at
     http://www.quantum-espresso.org/quote

     Parallel version (MPI & OpenMP), running on      32 processor cores
     Number of MPI processes:                32
     Threads/MPI process:                     1

     MPI processes distributed on     1 nodes
     R & G space division:  proc/nbgrp/npool/nimage =      32
     Reading input from scf_140.in

     Current dimensions of program PWSCF are:
     Max number of different atomic species (ntypx) = 10
     Max number of k-points (npk) =  40000
     Max angular momentum in pseudopotentials (lmaxx) =  3

     IMPORTANT: XC functional enforced from input :
     Exchange-correlation      = PBE ( 1  4  3  4 0 0)
     Any further DFT definition will be discarded
     Please, verify this is what you really want


     gamma-point specific algorithms are used

     Subspace diagonalization in iterative solution of the eigenvalue problem:
     one sub-group per band group will be used
     scalapack distributed-memory algorithm (size of sub-group:  4*  4 procs)

     Message from routine setup:
     DEPRECATED: symmetry with ibrav=0, use correct ibrav instead
 
     Parallelization info
     --------------------
     sticks:   dense  smooth     PW     G-vecs:    dense   smooth      PW
     Min         714     714    177                81546    81546   10181
     Max         716     716    180                81565    81565   10196
     Sum       22901   22901   5721              2609847  2609847  326029
 


     bravais-lattice index     =            0
     lattice parameter (alat)  =      22.6767  a.u.
     unit-cell volume          =   11661.1222 (a.u.)^3
     number of atoms/cell      =            1
     number of atomic types    =            1
     number of electrons       =        14.00 (up:  10.00, down:   4.00)
     number of Kohn-Sham states=           12
     kinetic-energy cutoff     =     140.0000  Ry
     charge density cutoff     =     560.0000  Ry
     convergence threshold     =      1.0E-06
     mixing beta               =       0.7000
     number of iterations used =            8  plain     mixing
     Exchange-correlation      = PBE ( 1  4  3  4 0 0)

     celldm(1)=  22.676714  celldm(2)=   0.000000  celldm(3)=   0.000000
     celldm(4)=   0.000000  celldm(5)=   0.000000  celldm(6)=   0.000000

     crystal axes: (cart. coord. in units of alat)
               a(1) = (   1.000000   0.000000   0.000000 )  
               a(2) = (   0.000000   1.000000   0.000000 )  
               a(3) = (   0.000000   0.000000   1.000000 )  

     reciprocal axes: (cart. coord. in units 2 pi/alat)
               b(1) = (  1.000000  0.000000  0.000000 )  
               b(2) = (  0.000000  1.000000  0.000000 )  
               b(3) = (  0.000000  0.000000  1.000000 )  


     PseudoPot. # 1 for Mo read from file:
     ./Mo.upf
     MD5 check sum: 8a384037cce4b47caa47c893dc3d0248
     Pseudo is Norm-conserving, Zval = 14.0
     Generated by new atomic code, or converted to UPF format
     Using radial grid of 1172 points,  2 beta functions with: 
                l(1) =   1
                l(2) =   2

     atomic species   valence    mass     pseudopotential
        Mo            14.00    95.94000     Mo( 1.00)

     Starting magnetic structure 
     atomic species   magnetization
        Mo           0.500

     48 Sym. Ops., with inversion, found


                                    s                        frac. trans.

      isym =  1     identity                                     

 cryst.   s( 1) = (     1          0          0      )
                  (     0          1          0      )
                  (     0          0          1      )

 cart.    s( 1) = (  1.0000000  0.0000000  0.0000000 )
                  (  0.0000000  1.0000000  0.0000000 )
                  (  0.0000000  0.0000000  1.0000000 )


      isym =  2     180 deg rotation - cart. axis [0,0,1]        

 cryst.   s( 2) = (    -1          0          0      )
                  (     0         -1          0      )
                  (     0          0          1      )

 cart.    s( 2) = ( -1.0000000  0.0000000  0.0000000 )
                  (  0.0000000 -1.0000000  0.0000000 )
                  (  0.0000000  0.0000000  1.0000000 )


      isym =  3     180 deg rotation - cart. axis [0,1,0]        

 cryst.   s( 3) = (    -1          0          0      )
                  (     0          1          0      )
                  (     0          0         -1      )

 cart.    s( 3) = ( -1.0000000  0.0000000  0.0000000 )
                  (  0.0000000  1.0000000  0.0000000 )
                  (  0.0000000  0.0000000 -1.0000000 )


      isym =  4     180 deg rotation - cart. axis [1,0,0]        

 cryst.   s( 4) = (     1          0          0      )
                  (     0         -1          0      )
                  (     0          0         -1      )

 cart.    s( 4) = (  1.0000000  0.0000000  0.0000000 )
                  (  0.0000000 -1.0000000  0.0000000 )
                  (  0.0000000  0.0000000 -1.0000000 )


      isym =  5     180 deg rotation - cart. axis [1,1,0]        

 cryst.   s( 5) = (     0          1          0      )
                  (     1          0          0      )
                  (     0          0         -1      )

 cart.    s( 5) = (  0.0000000  1.0000000  0.0000000 )
                  (  1.0000000  0.0000000  0.0000000 )
                  (  0.0000000  0.0000000 -1.0000000 )


      isym =  6     180 deg rotation - cart. axis [1,-1,0]       

 cryst.   s( 6) = (     0         -1          0      )
                  (    -1          0          0      )
                  (     0          0         -1      )

 cart.    s( 6) = (  0.0000000 -1.0000000  0.0000000 )
                  ( -1.0000000  0.0000000  0.0000000 )
                  (  0.0000000  0.0000000 -1.0000000 )


      isym =  7      90 deg rotation - cart. axis [0,0,-1]       

 cryst.   s( 7) = (     0         -1          0      )
                  (     1          0          0      )
                  (     0          0          1      )

 cart.    s( 7) = (  0.0000000  1.0000000  0.0000000 )
                  ( -1.0000000  0.0000000  0.0000000 )
                  (  0.0000000  0.0000000  1.0000000 )


      isym =  8      90 deg rotation - cart. axis [0,0,1]        

 cryst.   s( 8) = (     0          1          0      )
                  (    -1          0          0      )
                  (     0          0          1      )

 cart.    s( 8) = (  0.0000000 -1.0000000  0.0000000 )
                  (  1.0000000  0.0000000  0.0000000 )
                  (  0.0000000  0.0000000  1.0000000 )


      isym =  9     180 deg rotation - cart. axis [1,0,1]        

 cryst.   s( 9) = (     0          0          1      )
                  (     0         -1          0      )
                  (     1          0          0      )

 cart.    s( 9) = (  0.0000000  0.0000000  1.0000000 )
                  (  0.0000000 -1.0000000  0.0000000 )
                  (  1.0000000  0.0000000  0.0000000 )


      isym = 10     180 deg rotation - cart. axis [-1,0,1]       

 cryst.   s(10) = (     0          0         -1      )
                  (     0         -1          0      )
                  (    -1          0          0      )

 cart.    s(10) = (  0.0000000  0.0000000 -1.0000000 )
                  (  0.0000000 -1.0000000  0.0000000 )
                  ( -1.0000000  0.0000000  0.0000000 )


      isym = 11      90 deg rotation - cart. axis [0,1,0]        

 cryst.   s(11) = (     0          0         -1      )
                  (     0          1          0      )
                  (     1          0          0      )

 cart.    s(11) = (  0.0000000  0.0000000  1.0000000 )
                  (  0.0000000  1.0000000  0.0000000 )
                  ( -1.0000000  0.0000000  0.0000000 )


      isym = 12      90 deg rotation - cart. axis [0,-1,0]       

 cryst.   s(12) = (     0          0          1      )
                  (     0          1          0      )
                  (    -1          0          0      )

 cart.    s(12) = (  0.0000000  0.0000000 -1.0000000 )
                  (  0.0000000  1.0000000  0.0000000 )
                  (  1.0000000  0.0000000  0.0000000 )


      isym = 13     180 deg rotation - cart. axis [0,1,1]        

 cryst.   s(13) = (    -1          0          0      )
                  (     0          0          1      )
                  (     0          1          0      )

 cart.    s(13) = ( -1.0000000  0.0000000  0.0000000 )
                  (  0.0000000  0.0000000  1.0000000 )
                  (  0.0000000  1.0000000  0.0000000 )


      isym = 14     180 deg rotation - cart. axis [0,1,-1]       

 cryst.   s(14) = (    -1          0          0      )
                  (     0          0         -1      )
                  (     0         -1          0      )

 cart.    s(14) = ( -1.0000000  0.0000000  0.0000000 )
                  (  0.0000000  0.0000000 -1.0000000 )
                  (  0.0000000 -1.0000000  0.0000000 )


      isym = 15      90 deg rotation - cart. axis [-1,0,0]       

 cryst.   s(15) = (     1          0          0      )
                  (     0          0         -1      )
                  (     0          1          0      )

 cart.    s(15) = (  1.0000000  0.0000000  0.0000000 )
                  (  0.0000000  0.0000000  1.0000000 )
                  (  0.0000000 -1.0000000  0.0000000 )


      isym = 16      90 deg rotation - cart. axis [1,0,0]        

 cryst.   s(16) = (     1          0          0      )
                  (     0          0          1      )
                  (     0         -1          0      )

 cart.    s(16) = (  1.0000000  0.0000000  0.0000000 )
                  (  0.0000000  0.0000000 -1.0000000 )
                  (  0.0000000  1.0000000  0.0000000 )


      isym = 17     120 deg rotation - cart. axis [-1,-1,-1]     

 cryst.   s(17) = (     0          0          1      )
                  (     1          0          0      )
                  (     0          1          0      )

 cart.    s(17) = (  0.0000000  1.0000000  0.0000000 )
                  (  0.0000000  0.0000000  1.0000000 )
                  (  1.0000000  0.0000000  0.0000000 )


      isym = 18     120 deg rotation - cart. axis [-1,1,1]       

 cryst.   s(18) = (     0          0         -1      )
                  (    -1          0          0      )
                  (     0          1          0      )

 cart.    s(18) = (  0.0000000 -1.0000000  0.0000000 )
                  (  0.0000000  0.0000000  1.0000000 )
                  ( -1.0000000  0.0000000  0.0000000 )


      isym = 19     120 deg rotation - cart. axis [1,1,-1]       

 cryst.   s(19) = (     0          0         -1      )
                  (     1          0          0      )
                  (     0         -1          0      )

 cart.    s(19) = (  0.0000000  1.0000000  0.0000000 )
                  (  0.0000000  0.0000000 -1.0000000 )
                  ( -1.0000000  0.0000000  0.0000000 )


      isym = 20     120 deg rotation - cart. axis [1,-1,1]       

 cryst.   s(20) = (     0          0          1      )
                  (    -1          0          0      )
                  (     0         -1          0      )

 cart.    s(20) = (  0.0000000 -1.0000000  0.0000000 )
                  (  0.0000000  0.0000000 -1.0000000 )
                  (  1.0000000  0.0000000  0.0000000 )


      isym = 21     120 deg rotation - cart. axis [1,1,1]        

 cryst.   s(21) = (     0          1          0      )
                  (     0          0          1      )
                  (     1          0          0      )

 cart.    s(21) = (  0.0000000  0.0000000  1.0000000 )
                  (  1.0000000  0.0000000  0.0000000 )
                  (  0.0000000  1.0000000  0.0000000 )


      isym = 22     120 deg rotation - cart. axis [-1,1,-1]      

 cryst.   s(22) = (     0         -1          0      )
                  (     0          0         -1      )
                  (     1          0          0      )

 cart.    s(22) = (  0.0000000  0.0000000  1.0000000 )
                  ( -1.0000000  0.0000000  0.0000000 )
                  (  0.0000000 -1.0000000  0.0000000 )


      isym = 23     120 deg rotation - cart. axis [1,-1,-1]      

 cryst.   s(23) = (     0         -1          0      )
                  (     0          0          1      )
                  (    -1          0          0      )

 cart.    s(23) = (  0.0000000  0.0000000 -1.0000000 )
                  ( -1.0000000  0.0000000  0.0000000 )
                  (  0.0000000  1.0000000  0.0000000 )


      isym = 24     120 deg rotation - cart. axis [-1,-1,1]      

 cryst.   s(24) = (     0          1          0      )
                  (     0          0         -1      )
                  (    -1          0          0      )

 cart.    s(24) = (  0.0000000  0.0000000 -1.0000000 )
                  (  1.0000000  0.0000000  0.0000000 )
                  (  0.0000000 -1.0000000  0.0000000 )


      isym = 25     inversion                                    

 cryst.   s(25) = (    -1          0          0      )
                  (     0         -1          0      )
                  (     0          0         -1      )

 cart.    s(25) = ( -1.0000000  0.0000000  0.0000000 )
                  (  0.0000000 -1.0000000  0.0000000 )
                  (  0.0000000  0.0000000 -1.0000000 )


      isym = 26     inv. 180 deg rotation - cart. axis [0,0,1]   

 cryst.   s(26) = (     1          0          0      )
                  (     0          1          0      )
                  (     0          0         -1      )

 cart.    s(26) = (  1.0000000  0.0000000  0.0000000 )
                  (  0.0000000  1.0000000  0.0000000 )
                  (  0.0000000  0.0000000 -1.0000000 )


      isym = 27     inv. 180 deg rotation - cart. axis [0,1,0]   

 cryst.   s(27) = (     1          0          0      )
                  (     0         -1          0      )
                  (     0          0          1      )

 cart.    s(27) = (  1.0000000  0.0000000  0.0000000 )
                  (  0.0000000 -1.0000000  0.0000000 )
                  (  0.0000000  0.0000000  1.0000000 )


      isym = 28     inv. 180 deg rotation - cart. axis [1,0,0]   

 cryst.   s(28) = (    -1          0          0      )
                  (     0          1          0      )
                  (     0          0          1      )

 cart.    s(28) = ( -1.0000000  0.0000000  0.0000000 )
                  (  0.0000000  1.0000000  0.0000000 )
                  (  0.0000000  0.0000000  1.0000000 )


      isym = 29     inv. 180 deg rotation - cart. axis [1,1,0]   

 cryst.   s(29) = (     0         -1          0      )
                  (    -1          0          0      )
                  (     0          0          1      )

 cart.    s(29) = (  0.0000000 -1.0000000  0.0000000 )
                  ( -1.0000000  0.0000000  0.0000000 )
                  (  0.0000000  0.0000000  1.0000000 )


      isym = 30     inv. 180 deg rotation - cart. axis [1,-1,0]  

 cryst.   s(30) = (     0          1          0      )
                  (     1          0          0      )
                  (     0          0          1      )

 cart.    s(30) = (  0.0000000  1.0000000  0.0000000 )
                  (  1.0000000  0.0000000  0.0000000 )
                  (  0.0000000  0.0000000  1.0000000 )


      isym = 31     inv.  90 deg rotation - cart. axis [0,0,-1]  

 cryst.   s(31) = (     0          1          0      )
                  (    -1          0          0      )
                  (     0          0         -1      )

 cart.    s(31) = (  0.0000000 -1.0000000  0.0000000 )
                  (  1.0000000  0.0000000  0.0000000 )
                  (  0.0000000  0.0000000 -1.0000000 )


      isym = 32     inv.  90 deg rotation - cart. axis [0,0,1]   

 cryst.   s(32) = (     0         -1          0      )
                  (     1          0          0      )
                  (     0          0         -1      )

 cart.    s(32) = (  0.0000000  1.0000000  0.0000000 )
                  ( -1.0000000  0.0000000  0.0000000 )
                  (  0.0000000  0.0000000 -1.0000000 )


      isym = 33     inv. 180 deg rotation - cart. axis [1,0,1]   

 cryst.   s(33) = (     0          0         -1      )
                  (     0          1          0      )
                  (    -1          0          0      )

 cart.    s(33) = (  0.0000000  0.0000000 -1.0000000 )
                  (  0.0000000  1.0000000  0.0000000 )
                  ( -1.0000000  0.0000000  0.0000000 )


      isym = 34     inv. 180 deg rotation - cart. axis [-1,0,1]  

 cryst.   s(34) = (     0          0          1      )
                  (     0          1          0      )
                  (     1          0          0      )

 cart.    s(34) = (  0.0000000  0.0000000  1.0000000 )
                  (  0.0000000  1.0000000  0.0000000 )
                  (  1.0000000  0.0000000  0.0000000 )


      isym = 35     inv.  90 deg rotation - cart. axis [0,1,0]   

 cryst.   s(35) = (     0          0          1      )
                  (     0         -1          0      )
                  (    -1          0          0      )

 cart.    s(35) = (  0.0000000  0.0000000 -1.0000000 )
                  (  0.0000000 -1.0000000  0.0000000 )
                  (  1.0000000  0.0000000  0.0000000 )


      isym = 36     inv.  90 deg rotation - cart. axis [0,-1,0]  

 cryst.   s(36) = (     0          0         -1      )
                  (     0         -1          0      )
                  (     1          0          0      )

 cart.    s(36) = (  0.0000000  0.0000000  1.0000000 )
                  (  0.0000000 -1.0000000  0.0000000 )
                  ( -1.0000000  0.0000000  0.0000000 )


      isym = 37     inv. 180 deg rotation - cart. axis [0,1,1]   

 cryst.   s(37) = (     1          0          0      )
                  (     0          0         -1      )
                  (     0         -1          0      )

 cart.    s(37) = (  1.0000000  0.0000000  0.0000000 )
                  (  0.0000000  0.0000000 -1.0000000 )
                  (  0.0000000 -1.0000000  0.0000000 )


      isym = 38     inv. 180 deg rotation - cart. axis [0,1,-1]  

 cryst.   s(38) = (     1          0          0      )
                  (     0          0          1      )
                  (     0          1          0      )

 cart.    s(38) = (  1.0000000  0.0000000  0.0000000 )
                  (  0.0000000  0.0000000  1.0000000 )
                  (  0.0000000  1.0000000  0.0000000 )


      isym = 39     inv.  90 deg rotation - cart. axis [-1,0,0]  

 cryst.   s(39) = (    -1          0          0      )
                  (     0          0          1      )
                  (     0         -1          0      )

 cart.    s(39) = ( -1.0000000  0.0000000  0.0000000 )
                  (  0.0000000  0.0000000 -1.0000000 )
                  (  0.0000000  1.0000000  0.0000000 )


      isym = 40     inv.  90 deg rotation - cart. axis [1,0,0]   

 cryst.   s(40) = (    -1          0          0      )
                  (     0          0         -1      )
                  (     0          1          0      )

 cart.    s(40) = ( -1.0000000  0.0000000  0.0000000 )
                  (  0.0000000  0.0000000  1.0000000 )
                  (  0.0000000 -1.0000000  0.0000000 )


      isym = 41     inv. 120 deg rotation - cart. axis [-1,-1,-1]

 cryst.   s(41) = (     0          0         -1      )
                  (    -1          0          0      )
                  (     0         -1          0      )

 cart.    s(41) = (  0.0000000 -1.0000000  0.0000000 )
                  (  0.0000000  0.0000000 -1.0000000 )
                  ( -1.0000000  0.0000000  0.0000000 )


      isym = 42     inv. 120 deg rotation - cart. axis [-1,1,1]  

 cryst.   s(42) = (     0          0          1      )
                  (     1          0          0      )
                  (     0         -1          0      )

 cart.    s(42) = (  0.0000000  1.0000000  0.0000000 )
                  (  0.0000000  0.0000000 -1.0000000 )
                  (  1.0000000  0.0000000  0.0000000 )


      isym = 43     inv. 120 deg rotation - cart. axis [1,1,-1]  

 cryst.   s(43) = (     0          0          1      )
                  (    -1          0          0      )
                  (     0          1          0      )

 cart.    s(43) = (  0.0000000 -1.0000000  0.0000000 )
                  (  0.0000000  0.0000000  1.0000000 )
                  (  1.0000000  0.0000000  0.0000000 )


      isym = 44     inv. 120 deg rotation - cart. axis [1,-1,1]  

 cryst.   s(44) = (     0          0         -1      )
                  (     1          0          0      )
                  (     0          1          0      )

 cart.    s(44) = (  0.0000000  1.0000000  0.0000000 )
                  (  0.0000000  0.0000000  1.0000000 )
                  ( -1.0000000  0.0000000  0.0000000 )


      isym = 45     inv. 120 deg rotation - cart. axis [1,1,1]   

 cryst.   s(45) = (     0         -1          0      )
                  (     0          0         -1      )
                  (    -1          0          0      )

 cart.    s(45) = (  0.0000000  0.0000000 -1.0000000 )
                  ( -1.0000000  0.0000000  0.0000000 )
                  (  0.0000000 -1.0000000  0.0000000 )


      isym = 46     inv. 120 deg rotation - cart. axis [-1,1,-1] 

 cryst.   s(46) = (     0          1          0      )
                  (     0          0          1      )
                  (    -1          0          0      )

 cart.    s(46) = (  0.0000000  0.0000000 -1.0000000 )
                  (  1.0000000  0.0000000  0.0000000 )
                  (  0.0000000  1.0000000  0.0000000 )


      isym = 47     inv. 120 deg rotation - cart. axis [1,-1,-1] 

 cryst.   s(47) = (     0          1          0      )
                  (     0          0         -1      )
                  (     1          0          0      )

 cart.    s(47) = (  0.0000000  0.0000000  1.0000000 )
                  (  1.0000000  0.0000000  0.0000000 )
                  (  0.0000000 -1.0000000  0.0000000 )


      isym = 48     inv. 120 deg rotation - cart. axis [-1,-1,1] 

 cryst.   s(48) = (     0         -1          0      )
                  (     0          0          1      )
                  (     1          0          0      )

 cart.    s(48) = (  0.0000000  0.0000000  1.0000000 )
                  ( -1.0000000  0.0000000  0.0000000 )
                  (  0.0000000  1.0000000  0.0000000 )


   Cartesian axes

     site n.     atom                  positions (alat units)
         1           Mo  tau(   1) = (   0.5000000   0.5000000   0.5000000  )

   Crystallographic axes

     site n.     atom                  positions (cryst. coord.)
         1           Mo  tau(   1) = (  0.5000000  0.5000000  0.5000000  )

     number of k points=     1
                       cart. coord. in units 2pi/alat
        k(    1) = (   0.0000000   0.0000000   0.0000000), wk =   1.0000000

                       cryst. coord.
        k(    1) = (   0.0000000   0.0000000   0.0000000), wk =   1.0000000

     Dense  grid:  1304924 G-vectors     FFT dimensions: ( 180, 180, 180)

     Dynamical RAM for                 wfc:       0.93 MB

     Dynamical RAM for     wfc (w. buffer):       2.80 MB

     Dynamical RAM for           str. fact:       0.62 MB

     Dynamical RAM for           local pot:       0.00 MB

     Dynamical RAM for          nlocal pot:       0.62 MB

     Dynamical RAM for                qrad:       0.98 MB

     Dynamical RAM for          rho,v,vnew:      12.63 MB

     Dynamical RAM for               rhoin:       4.21 MB

     Dynamical RAM for            rho*nmix:      19.91 MB

     Dynamical RAM for           G-vectors:       2.64 MB

     Dynamical RAM for          h,s,v(r/c):       0.00 MB

     Dynamical RAM for          <psi|beta>:       0.00 MB

     Dynamical RAM for                 psi:       3.73 MB

     Dynamical RAM for                hpsi:       3.73 MB

     Dynamical RAM for      wfcinit/wfcrot:       1.87 MB

     Estimated static dynamical RAM per process >      54.57 MB

     Estimated max dynamical RAM per process >      62.04 MB

     Estimated total dynamical RAM >       1.94 GB
     Generating pointlists ...
     new r_m :   0.4125 (alat units)  9.3541 (a.u.) for type    1

     Initial potential from superposition of free atoms

     starting charge   11.99998, renormalised to   14.00000

     negative rho (up, down):  2.543E-04 0.000E+00
     Starting wfcs are    9 randomized atomic wfcs +    3 random wfcs

     total cpu time spent up to now is        1.5 secs

     Self-consistent Calculation

     iteration #  1     ecut=   140.00 Ry     beta= 0.70
     Davidson diagonalization with overlap
     ethr =  1.00E-02,  avg # of iterations =  8.0

     negative rho (up, down):  0.000E+00 3.250E-01

     total cpu time spent up to now is        3.7 secs

     total energy              =    -126.79811608 Ry
     Harris-Foulkes estimate   =    -138.27956847 Ry
     estimated scf accuracy    <      14.99042132 Ry

     total magnetization       =     6.00 Bohr mag/cell
     absolute magnetization    =     6.01 Bohr mag/cell

     iteration #  2     ecut=   140.00 Ry     beta= 0.70
     Davidson diagonalization with overlap
     ethr =  1.00E-02,  avg # of iterations =  7.5

     negative rho (up, down):  0.000E+00 1.867E-01

     total cpu time spent up to now is        5.7 secs

     total energy              =    -136.40916394 Ry
     Harris-Foulkes estimate   =    -141.44527414 Ry
     estimated scf accuracy    <       8.66164144 Ry

     total magnetization       =     6.00 Bohr mag/cell
     absolute magnetization    =     6.00 Bohr mag/cell

     iteration #  3     ecut=   140.00 Ry     beta= 0.70
     Davidson diagonalization with overlap
     ethr =  1.00E-02,  avg # of iterations =  2.0

     negative rho (up, down):  0.000E+00 1.861E-01

     total cpu time spent up to now is        7.1 secs

     total energy              =    -136.63722910 Ry
     Harris-Foulkes estimate   =    -136.95886372 Ry
     estimated scf accuracy    <       1.61582306 Ry

     total magnetization       =     6.00 Bohr mag/cell
     absolute magnetization    =     6.00 Bohr mag/cell

     iteration #  4     ecut=   140.00 Ry     beta= 0.70
     Davidson diagonalization with overlap
     ethr =  1.00E-02,  avg # of iterations =  1.0

     negative rho (up, down):  1.888E-07 8.113E-01

     total cpu time spent up to now is        8.3 secs

     total energy              =    -135.75910131 Ry
     Harris-Foulkes estimate   =    -136.64631065 Ry
     estimated scf accuracy    <       1.13787283 Ry

     total magnetization       =     6.00 Bohr mag/cell
     absolute magnetization    =     6.00 Bohr mag/cell

     iteration #  5     ecut=   140.00 Ry     beta= 0.70
     Davidson diagonalization with overlap
     ethr =  8.13E-03,  avg # of iterations =  2.5

     negative rho (up, down):  4.703E-07 8.190E-01

     total cpu time spent up to now is        9.6 secs

     total energy              =    -136.08243581 Ry
     Harris-Foulkes estimate   =    -136.05470738 Ry
     estimated scf accuracy    <       0.12254186 Ry

     total magnetization       =     6.00 Bohr mag/cell
     absolute magnetization    =     6.00 Bohr mag/cell

     iteration #  6     ecut=   140.00 Ry     beta= 0.70
     Davidson diagonalization with overlap
     ethr =  8.75E-04,  avg # of iterations =  6.5

     negative rho (up, down):  6.916E-02 9.502E-02

     total cpu time spent up to now is       11.2 secs

     total energy              =    -136.09605038 Ry
     Harris-Foulkes estimate   =    -136.09853833 Ry
     estimated scf accuracy    <       0.28344203 Ry

     total magnetization       =     6.00 Bohr mag/cell
     absolute magnetization    =     6.00 Bohr mag/cell

     iteration #  7     ecut=   140.00 Ry     beta= 0.70
     Davidson diagonalization with overlap
     ethr =  8.75E-04,  avg # of iterations =  1.0

     negative rho (up, down):  6.582E-02 3.065E-01

     total cpu time spent up to now is       12.4 secs

     total energy              =    -136.00741395 Ry
     Harris-Foulkes estimate   =    -136.09691071 Ry
     estimated scf accuracy    <       0.25680899 Ry

     total magnetization       =     6.00 Bohr mag/cell
     absolute magnetization    =     6.00 Bohr mag/cell

     iteration #  8     ecut=   140.00 Ry     beta= 0.70
     Davidson diagonalization with overlap
     ethr =  8.75E-04,  avg # of iterations =  2.5

     negative rho (up, down):  4.582E-02 3.351E-01

     total cpu time spent up to now is       13.6 secs

     total energy              =    -136.02802605 Ry
     Harris-Foulkes estimate   =    -136.03086017 Ry
     estimated scf accuracy    <       0.02674788 Ry

     total magnetization       =     6.00 Bohr mag/cell
     absolute magnetization    =     6.00 Bohr mag/cell

     iteration #  9     ecut=   140.00 Ry     beta= 0.70
     Davidson diagonalization with overlap
     ethr =  1.91E-04,  avg # of iterations =  3.0

     negative rho (up, down):  3.238E-02 4.293E-01

     total cpu time spent up to now is       14.9 secs

     total energy              =    -136.02514106 Ry
     Harris-Foulkes estimate   =    -136.02844157 Ry
     estimated scf accuracy    <       0.02137895 Ry

     total magnetization       =     6.00 Bohr mag/cell
     absolute magnetization    =     6.00 Bohr mag/cell

     iteration # 10     ecut=   140.00 Ry     beta= 0.70
     Davidson diagonalization with overlap
     ethr =  1.53E-04,  avg # of iterations =  1.0

     negative rho (up, down):  6.307E-03 5.143E-01

     total cpu time spent up to now is       16.1 secs

     total energy              =    -136.01937796 Ry
     Harris-Foulkes estimate   =    -136.02561849 Ry
     estimated scf accuracy    <       0.01306228 Ry

     total magnetization       =     6.00 Bohr mag/cell
     absolute magnetization    =     6.00 Bohr mag/cell

     iteration # 11     ecut=   140.00 Ry     beta= 0.70
     Davidson diagonalization with overlap
     ethr =  9.33E-05,  avg # of iterations =  3.5

     negative rho (up, down):  5.636E-04 4.843E-01

     total cpu time spent up to now is       17.5 secs

     total energy              =    -136.02025446 Ry
     Harris-Foulkes estimate   =    -136.02084817 Ry
     estimated scf accuracy    <       0.00243684 Ry

     total magnetization       =     6.00 Bohr mag/cell
     absolute magnetization    =     6.00 Bohr mag/cell

     iteration # 12     ecut=   140.00 Ry     beta= 0.70
     Davidson diagonalization with overlap
     ethr =  1.74E-05,  avg # of iterations =  6.5

     negative rho (up, down):  4.566E-06 9.418E-02

     total cpu time spent up to now is       19.2 secs

     total energy              =    -136.02035493 Ry
     Harris-Foulkes estimate   =    -136.02050523 Ry
     estimated scf accuracy    <       0.00015799 Ry

     total magnetization       =     6.00 Bohr mag/cell
     absolute magnetization    =     6.00 Bohr mag/cell

     iteration # 13     ecut=   140.00 Ry     beta= 0.70
     Davidson diagonalization with overlap
     ethr =  1.13E-06,  avg # of iterations =  8.5

     negative rho (up, down):  0.000E+00 2.279E-02

     total cpu time spent up to now is       21.0 secs

     total energy              =    -136.02035008 Ry
     Harris-Foulkes estimate   =    -136.02038283 Ry
     estimated scf accuracy    <       0.00000624 Ry

     total magnetization       =     6.00 Bohr mag/cell
     absolute magnetization    =     6.00 Bohr mag/cell

     iteration # 14     ecut=   140.00 Ry     beta= 0.70
     Davidson diagonalization with overlap
     ethr =  4.46E-08,  avg # of iterations =  3.0

     negative rho (up, down):  1.092E-06 4.266E-02

     total cpu time spent up to now is       22.3 secs

     total energy              =    -136.02035627 Ry
     Harris-Foulkes estimate   =    -136.02035258 Ry
     estimated scf accuracy    <       0.00000227 Ry

     total magnetization       =     6.00 Bohr mag/cell
     absolute magnetization    =     6.00 Bohr mag/cell

     iteration # 15     ecut=   140.00 Ry     beta= 0.70
     Davidson diagonalization with overlap
     ethr =  1.62E-08,  avg # of iterations =  1.0

     negative rho (up, down):  3.026E-05 2.066E-01

     total cpu time spent up to now is       23.6 secs

     total energy              =    -136.02036827 Ry
     Harris-Foulkes estimate   =    -136.02035632 Ry
     estimated scf accuracy    <       0.00000243 Ry

     total magnetization       =     6.00 Bohr mag/cell
     absolute magnetization    =     6.00 Bohr mag/cell

     iteration # 16     ecut=   140.00 Ry     beta= 0.70
     Davidson diagonalization with overlap
     ethr =  1.62E-08,  avg # of iterations =  1.5

     negative rho (up, down):  2.421E-05 1.933E-01

     total cpu time spent up to now is       24.8 secs

     total energy              =    -136.02036506 Ry
     Harris-Foulkes estimate   =    -136.02036836 Ry
     estimated scf accuracy    <       0.00000110 Ry

     total magnetization       =     6.00 Bohr mag/cell
     absolute magnetization    =     6.00 Bohr mag/cell

     iteration # 17     ecut=   140.00 Ry     beta= 0.70
     Davidson diagonalization with overlap
     ethr =  7.89E-09,  avg # of iterations =  1.0
 
     Magnetic moment per site:
     atom:    1    charge:   13.9991    magn:    5.9991    constr:    0.0000

     total cpu time spent up to now is       25.9 secs

     End of self-consistent calculation

 ------ SPIN UP ------------


          k = 0.0000 0.0000 0.0000 (163015 PWs)   bands (ev):

   -64.8351 -39.1840 -39.1840 -39.1840  -4.4133  -4.2726  -4.2726  -4.2726
    -4.2725  -4.2725  -1.0668  -1.0666

     occupation numbers 
     1.0000   1.0000   1.0000   1.0000   1.0000   1.0000   1.0000   1.0000
     1.0000   1.0000   0.0000   0.0000

 ------ SPIN DOWN ----------


          k = 0.0000 0.0000 0.0000 (163015 PWs)   bands (ev):

   -62.0037 -36.0964 -36.0964 -36.0961  -1.4351  -0.8479  -0.8478  -0.8468
    -0.8467  -0.8466   0.2742   0.9901

     occupation numbers 
     1.0000   1.0000   1.0000   1.0000   0.0000   0.0000   0.0000   0.0000
     0.0000   0.0000   0.0000   0.0000

     highest occupied, lowest unoccupied level (ev):    -4.2725   -1.4351

!    total energy              =    -136.02035188 Ry
     Harris-Foulkes estimate   =    -136.02036510 Ry
     estimated scf accuracy    <       0.00000058 Ry

     The total energy is the sum of the following terms:

     one-electron contribution =    -184.07657986 Ry
     hartree contribution      =      88.46008059 Ry
     xc contribution           =     -15.88044433 Ry
     ewald contribution        =     -24.52340829 Ry

     total magnetization       =     6.00 Bohr mag/cell
     absolute magnetization    =     6.00 Bohr mag/cell

     convergence has been achieved in  17 iterations

     Writing output data file pwscf.save/
 
     init_run     :      1.20s CPU      1.36s WALL (       1 calls)
     electrons    :     24.07s CPU     24.49s WALL (       1 calls)

     Called by init_run:
     wfcinit      :      0.26s CPU      0.31s WALL (       1 calls)
     wfcinit:atom :      0.00s CPU      0.00s WALL (       2 calls)
     wfcinit:wfcr :      0.25s CPU      0.30s WALL (       2 calls)
     potinit      :      0.41s CPU      0.44s WALL (       1 calls)
     hinit0       :      0.07s CPU      0.13s WALL (       1 calls)

     Called by electrons:
     c_bands      :     11.99s CPU     12.11s WALL (      17 calls)
     sum_band     :      3.73s CPU      3.75s WALL (      17 calls)
     v_of_rho     :      6.57s CPU      6.75s WALL (      18 calls)
     v_h          :      0.47s CPU      0.48s WALL (      18 calls)
     v_xc         :      6.09s CPU      6.27s WALL (      18 calls)
     mix_rho      :      1.85s CPU      1.89s WALL (      17 calls)

     Called by c_bands:
     init_us_2    :      0.08s CPU      0.09s WALL (      70 calls)
     regterg      :     11.86s CPU     11.97s WALL (      34 calls)

     Called by sum_band:

     Called by *egterg:
     h_psi        :     11.08s CPU     11.17s WALL (     156 calls)
     g_psi        :      0.04s CPU      0.04s WALL (     120 calls)
     rdiaghg      :      0.17s CPU      0.20s WALL (     154 calls)
     regterg:over :      0.21s CPU      0.22s WALL (     120 calls)
     regterg:upda :      0.25s CPU      0.26s WALL (     120 calls)
     regterg:last :      0.10s CPU      0.10s WALL (      41 calls)
     rdiaghg:chol :      0.04s CPU      0.05s WALL (     154 calls)
     rdiaghg:inve :      0.00s CPU      0.00s WALL (     154 calls)
     rdiaghg:para :      0.02s CPU      0.02s WALL (     308 calls)

     Called by h_psi:
     h_psi:pot    :     11.04s CPU     11.12s WALL (     156 calls)
     h_psi:calbec :      0.11s CPU      0.14s WALL (     156 calls)
     vloc_psi     :     10.87s CPU     10.92s WALL (     156 calls)
     add_vuspsi   :      0.07s CPU      0.07s WALL (     156 calls)

     General routines
     calbec       :      0.11s CPU      0.13s WALL (     156 calls)
     fft          :      5.46s CPU      5.59s WALL (     266 calls)
     ffts         :      0.62s CPU      0.62s WALL (      34 calls)
     fftw         :     10.24s CPU     10.30s WALL (    1474 calls)
 
     Parallel routines
     fft_scatt_xy :      3.08s CPU      3.10s WALL (    1774 calls)
     fft_scatt_yz :      5.29s CPU      5.36s WALL (    1774 calls)
 
     PWSCF        :     25.39s CPU     26.31s WALL

 
   This run was terminated on:  22:44:13  17Jan2022            

=------------------------------------------------------------------------------=
   JOB DONE.
=------------------------------------------------------------------------------=
