
 Primary working directories    : /global/cscratch1/sd/bkincaid
 Secondary working directories  : /global/cscratch1/sd/bkincaid
 Wavefunction directory         : /global/homes/b/bkincaid/wfu/
 Main file repository           : /global/cscratch1/sd/bkincaid/

 SHA1      : 19cd028119e0e09f93f0674bd8af7968d9b3eff6
 NAME      : 2015.1.36
 ARCHNAME  : linux/x86_64
 FC        : /opt/cray/pe/craype/2.5.14/bin/ftn
 BLASLIB   : -L/opt/intel/compilers_and_libraries_2018.1.163/linux/mkl/lib/intel64 -Wl,-_start-group -lmkl_intel_ilp64 -lmkl_intel_thread -lmkl_core -Wl,-_end-group -liomp5
 id        : lbl

 Nodes     nprocs
 nid01395    11
 Number of processes for MPI-2 version of Molpro:   nprocs(total)=   12   nprocs(compute)=   11   nprocs(helper)=    1

 Using customized tuning parameters: mindgm=7; mindgv=16; mindgc=1; mindgr=1; noblas=0; minvec=7
 default implementation of scratch files=sf  

 ***,Calculation for IrO groundstate
 memory,1024,m
 gthresh,twoint=1.0E-15
 gthresh,throvl=1.0E-15
 
 set,dkroll=1,dkho=10,dkhp=4
 
 basis={
 Including file /global/u1/b/bkincaid/molpro/Ir/molecules/tz/IrO/ae/1.500/tz.basis
 Including file /global/u1/b/bkincaid/molpro/Ir/molecules/tz/IrO/ae/1.500/O-aug-cc-CVTZ.basis
 }
 
 ne = 85
 
 A1=20
 B1=10
 B2=10
 A2=4
 
 do i=1,1
 z(i) = 1.500 - 0.1*(i-1)
 geometry={
 2
 IrO
 Ir 0.0 0.0 0.0
 O 0.0 0.0 z(i)
 }
         {rhf
         wf,nelec=ne,spin=3,sym=1
                                                                                 !occ,A1,B1,B2,A2
                                                                                 !closed,A1,B1-1,B2-1,A2-1
         print,orbitals=2
         }
         {rhf
         wf,nelec=ne,spin=3,sym=1
                 occ,A1,B1,B2,A2
                 closed,A1,B1-1,B2-1,A2-1
         print,orbitals=2
         }
         scf(i)=energy
         _CC_NORM_MAX=2.0
         {rccsd(t);maxit,100;core}
         ccsd(i)=energy
 enddo
 
 table,z,scf,ccsd
 save
 type,csv
 

 Variables initialized (889), CPU time= 0.01 sec
 Commands  initialized (702), CPU time= 0.01 sec, 572 directives.
 Default parameters read. Elapsed time= 0.15 sec

 Checking input...
 Passed
1


                                         ***  PROGRAM SYSTEM MOLPRO  ***
                                       Copyright, TTI GmbH Stuttgart, 2015
                                    Version 2015.1 linked Dec 29 2018 15:55:43


 **********************************************************************************************************************************
 LABEL *   Calculation for IrO groundstate                                               
  64 bit mpp version                                                                     DATE: 07-Jun-21          TIME: 15:39:49  
 **********************************************************************************************************************************

 SHA1:             19cd028119e0e09f93f0674bd8af7968d9b3eff6
 **********************************************************************************************************************************

 THRESHOLDS:

 ZERO    =  1.00D-12  ONEINT  =  1.00D-12  TWOINT  =  1.00D-15  PREFAC  =  1.00D-14  LOCALI  =  1.00D-09  EORDER  =  1.00D-04
 ENERGY  =  0.00D+00  ETEST   =  0.00D+00  EDENS   =  0.00D+00  THRDEDEF=  1.00D-06  GRADIENT=  1.00D-02  STEP    =  1.00D-03
 ORBITAL =  1.00D-05  CIVEC   =  1.00D-05  COEFF   =  1.00D-04  PRINTCI =  5.00D-02  PUNCHCI =  9.90D+01  OPTGRAD =  3.00D-04
 OPTENERG=  1.00D-06  OPTSTEP =  3.00D-04  THRGRAD =  1.00D-10  COMPRESS=  1.00D-11  VARMIN  =  1.00D-07  VARMAX  =  1.00D-03
 THRDOUB =  0.00D+00  THRDIV  =  1.00D-05  THRRED  =  1.00D-07  THRPSP  =  1.00D+00  THRDC   =  1.00D-10  THRCS   =  1.00D-10
 THRNRM  =  1.00D-08  THREQ   =  0.00D+00  THRDE   =  1.00D+00  THRREF  =  1.00D-05  SPARFAC =  1.00D+00  THRDLP  =  1.00D-07
 THRDIA  =  1.00D-10  THRDLS  =  1.00D-07  THRGPS  =  0.00D+00  THRKEX  =  0.00D+00  THRDIS  =  2.00D-01  THRVAR  =  1.00D-10
 THRLOC  =  1.00D-06  THRGAP  =  1.00D-06  THRLOCT = -1.00D+00  THRGAPT = -1.00D+00  THRORB  =  1.00D-06  THRMLTP =  0.00D+00
 THRCPQCI=  1.00D-10  KEXTA   =  0.00D+00  THRCOARS=  0.00D+00  SYMTOL  =  1.00D-06  GRADTOL =  1.00D-06  THROVL  =  1.00D-08
 THRORTH =  1.00D-08  GRID    =  1.00D-06  GRIDMAX =  1.00D-03  DTMAX   =  0.00D+00  THROCCDE=  1.00D-01  THROCCDE=  1.00D-01



 THRESHOLDS:

 ZERO    =  1.00D-12  ONEINT  =  1.00D-12  TWOINT  =  1.00D-15  PREFAC  =  1.00D-14  LOCALI  =  1.00D-09  EORDER  =  1.00D-04
 ENERGY  =  0.00D+00  ETEST   =  0.00D+00  EDENS   =  0.00D+00  THRDEDEF=  1.00D-06  GRADIENT=  1.00D-02  STEP    =  1.00D-03
 ORBITAL =  1.00D-05  CIVEC   =  1.00D-05  COEFF   =  1.00D-04  PRINTCI =  5.00D-02  PUNCHCI =  9.90D+01  OPTGRAD =  3.00D-04
 OPTENERG=  1.00D-06  OPTSTEP =  3.00D-04  THRGRAD =  1.00D-10  COMPRESS=  1.00D-11  VARMIN  =  1.00D-07  VARMAX  =  1.00D-03
 THRDOUB =  0.00D+00  THRDIV  =  1.00D-05  THRRED  =  1.00D-07  THRPSP  =  1.00D+00  THRDC   =  1.00D-10  THRCS   =  1.00D-10
 THRNRM  =  1.00D-08  THREQ   =  0.00D+00  THRDE   =  1.00D+00  THRREF  =  1.00D-05  SPARFAC =  1.00D+00  THRDLP  =  1.00D-07
 THRDIA  =  1.00D-10  THRDLS  =  1.00D-07  THRGPS  =  0.00D+00  THRKEX  =  0.00D+00  THRDIS  =  2.00D-01  THRVAR  =  1.00D-10
 THRLOC  =  1.00D-06  THRGAP  =  1.00D-06  THRLOCT = -1.00D+00  THRGAPT = -1.00D+00  THRORB  =  1.00D-06  THRMLTP =  0.00D+00
 THRCPQCI=  1.00D-10  KEXTA   =  0.00D+00  THRCOARS=  0.00D+00  SYMTOL  =  1.00D-06  GRADTOL =  1.00D-06  THROVL  =  1.00D-15
 THRORTH =  1.00D-08  GRID    =  1.00D-06  GRIDMAX =  1.00D-03  DTMAX   =  0.00D+00  THROCCDE=  1.00D-01  THROCCDE=  1.00D-01


 SETTING DKROLL         =         1.00000000                                  
 SETTING DKHO           =        10.00000000                                  
 SETTING DKHP           =         4.00000000                                  

 Variable memory set to 1024000000 words,  buffer space   230000 words

 SETTING BASIS          =    USERDEF
 SETTING NE             =        85.00000000                                  
 SETTING A1             =        20.00000000                                  
 SETTING B1             =        10.00000000                                  
 SETTING B2             =        10.00000000                                  
 SETTING A2             =         4.00000000                                  

 DO I                   =         1.00000000   
 SETTING Z(1)           =         1.50000000                                  

Geometry recognized as XYZ



 Recomputing integrals since basis changed


 Using spherical harmonics



 PROGRAM * SEWARD (Integral evaluation for generally contracted gaussian basis sets)     Author: Roland Lindh, 1990

 Geometry written to block  1 of record 700


 Point group  C2v 



 ATOMIC COORDINATES

 NR  ATOM    CHARGE       X              Y              Z

   1  IR     77.00    0.000000000    0.000000000    0.000000000
   2  O       8.00    0.000000000    0.000000000    2.834589187

 Bond lengths in Bohr (Angstrom)

 1-2  2.834589187
     ( 1.500000000)

 NUCLEAR CHARGE:                   85
 NUMBER OF PRIMITIVE AOS:         541
 NUMBER OF SYMMETRY AOS:          446
 NUMBER OF CONTRACTIONS:          446   ( 185A1  + 106B1  + 106B2  +  49A2  )
 NUMBER OF CORE ORBITALS:          35   (  16A1  +   8B1  +   8B2  +   3A2  )
 NUMBER OF VALENCE ORBITALS:       10   (   5A1  +   2B1  +   2B2  +   1A2  )


 NUCLEAR REPULSION ENERGY  217.31544128

 One-electron integrals computed with SEWARD

 10nd-order Douglas-Kroll-Hess method activated. McWeeny DKH parametrization is used.

 Computing Douglas-Kroll / X2C integrals

 AO integral compression algorithm  1   Integral accuracy      1.0D-15

     4695.523 MB (compressed) written to integral file ( 40.1%)

     Node minimum: 257.950 MB, node maximum: 838.337 MB


 NUMBER OF SORTED TWO-ELECTRON INTEGRALS:  115711532.     BUFFER LENGTH:  32768
 NUMBER OF SEGMENTS:   4  SEGMENT LENGTH:   31989761      RECORD LENGTH: 524288

 Memory used in sort:      32.55 MW

 SORT1 READ  1465035727. AND WROTE    46861673. INTEGRALS IN    135 RECORDS. CPU TIME:    20.91 SEC, REAL TIME:    28.41 SEC
 SORT2 READ   512070739. AND WROTE  1273302750. INTEGRALS IN  11550 RECORDS. CPU TIME:     1.57 SEC, REAL TIME:     2.55 SEC

 Node minimum:   115641882.  Node maximum:   115920125. integrals

 OPERATOR DM      FOR CENTER  0  COORDINATES:    0.000000    0.000000    0.000000

 EXTRA SYMMETRY OF AOS IN SYMMETRY 1:   1 1 1 1 1 1 1 1 1 1   1 1 1 1 1 1 1 1 1 1   1 1 1 1 1 1 1 1 1 1   1 1 1 1 1 1 1 1 1 1
                                        1 1 1 1 1 1 1 1 1 1   1 1 1 1 1 1 1 1 1 1   1 1 1 1 1 1 1 1 1 1   1 1 1 1 1 1 1 1 1 1
                                        1 1 1 1 1 1 1 1 1 1   1 1 1 1 1 1 1 1 1 1   1 1 1 1 1 1 1 1 1 1   1 1 1 1 1 1 1 1 1 1
                                        1 1 1 1 1 1 1 1 1 1   1 1 1 1 1 1 1 1 1 1   1 1 1 1 2 1 1 2 1 1   2 1 1 1 1 1 1 1 1 1
                                        1 1 1 1 1 1 1 1 1 1   1 1 1 1 1 1 1 1 1 1   1 1 1 1 1
 EXTRA SYMMETRY OF AOS IN SYMMETRY 2:   1 1 1 1 1 1 1 1 1 1   1 1 1 1 1 1 1 1 1 1   1 1 1 1 1 1 1 1 1 1   1 1 1 1 1 1 1 1 1 1
                                        1 1 1 1 1 1 1 1 1 1   1 1 1 1 1 2 1 2 1 2   1 2 1 2 1 2 1 2 1 2   1 2 1 2 1 2 1 2 1 2
                                        1 2 1 2 1 2 1 2 1 2   1 1 1 1 1 1 1 1 1 1   1 1 1 2 1 2
 EXTRA SYMMETRY OF AOS IN SYMMETRY 3:   1 1 1 1 1 1 1 1 1 1   1 1 1 1 1 1 1 1 1 1   1 1 1 1 1 1 1 1 1 1   1 1 1 1 1 1 1 1 1 1
                                        1 1 1 1 1 1 1 1 1 1   1 1 1 1 1 2 1 2 1 2   1 2 1 2 1 2 1 2 1 2   1 2 1 2 1 2 1 2 1 2
                                        1 2 1 2 1 2 1 2 1 2   1 1 1 1 1 1 1 1 1 1   1 1 1 2 1 2
 EXTRA SYMMETRY OF AOS IN SYMMETRY 4:   1 1 1 1 1 1 1 1 1 1   1 1 1 1 1 1 1 1 1 1   1 1 1 1 1 1 1 1 1 1   1 1 1 1 1 1 1 1 2 1
                                        2 1 2 1 1 1 1 1 1

 Eigenvalues of metric

         1 0.160E-06 0.349E-06 0.754E-06 0.805E-06 0.139E-05 0.459E-05 0.507E-05 0.115E-04
         2 0.172E-06 0.799E-06 0.510E-05 0.116E-04 0.262E-04 0.502E-04 0.547E-04 0.554E-04
         3 0.172E-06 0.799E-06 0.510E-05 0.116E-04 0.262E-04 0.502E-04 0.547E-04 0.554E-04
         4 0.805E-06 0.267E-04 0.543E-04 0.165E-03 0.628E-03 0.979E-03 0.214E-02 0.552E-02


 **********************************************************************************************************************************
 DATASETS  * FILE   NREC   LENGTH (MB)   RECORD NAMES
              1      22       23.93       500      610      700      900      950      970     1000      129      960     1700   
                                          VAR    BASINP    GEOM    SYMINP    ZMAT    AOBASIS   BASIS     P2S    ABASIS    OPER   
                                         1101     1401     1411     1412     1650     1100     1400     1410     1200     1210   
                                          SR      EKINR    POTR     PVPR    MOLCAS      S      EKIN      POT      H0       H01  
                                         1080     1600   
                                         AOSYM     SMH  

 PROGRAMS   *        TOTAL       INT
 CPU TIMES  *       170.38    170.19
 REAL TIME  *       181.15 SEC
 DISK USED  *        10.88 GB      
 GA USED    *         0.00 MB       (max)       0.00 MB       (current)
 **********************************************************************************************************************************


 PROGRAM * RHF-SCF (OPEN SHELL)       Authors: W. Meyer, H.-J. Werner


 NUMBER OF ELECTRONS:      44+   41-    SPACE SYMMETRY=1    SPIN SYMMETRY: Quartet 
 CONVERGENCE THRESHOLDS:    1.00E-05 (Density)    1.70E-07 (Energy)
 MAX. NUMBER OF ITERATIONS:       60
 INTERPOLATION TYPE:            DIIS
 INTERPOLATION STEPS:              2 (START)      1 (STEP)
 LEVEL SHIFTS:                 -0.60 (CLOSED) -0.30 (OPEN) 



 Orbital guess generated from atomic densities. Full valence occupancy:   21  10  10   4

 Molecular orbital dump at record        2100.2

 Initial alpha occupancy:  21  10  10   3
 Initial beta  occupancy:  20   8  10   3
 Wave function symmetry:    1

 ITERATION    DDIFF          GRAD             ENERGY        2-EL.EN.            DIPOLE MOMENTS         DIIS   ORB.
    1      0.000D+00      0.000D+00    -17889.17634772  13055.537899    0.00000    0.00000   -2.75687    0    start
    2      0.000D+00      0.319D-01    -17896.18825843  14218.696182    0.00000    0.00000    1.58529    1    diag,B
    3      0.357D+01      0.565D-01    -17899.96922630  13973.002091    0.00000    0.00000    0.00453    2    diag,B
    4      0.493D-01      0.211D-01    -17901.18790006  13852.559577    0.00000    0.00000   -0.59458    3    diag,B
    5      0.229D-01      0.858D-02    -17901.49358884  13783.420502    0.00000    0.00000   -0.86148    4    diag,B
    6      0.813D-02      0.227D-02    -17901.54234633  13754.764154    0.00000    0.00000   -0.85965    5    diag,B
    7      0.424D-02      0.771D-03    -17901.55103438  13750.604593    0.00000    0.00000   -0.78445    6    fixocc
    8      0.218D-02      0.497D-03    -17901.55549071  13750.349037    0.00000    0.00000   -0.67253    7    diag,B
    9      0.116D-02      0.237D-03    -17901.55760903  13749.836994    0.00000    0.00000   -0.58785    8    diag,B
   10      0.687D-03      0.124D-03    -17901.55868364  13749.537378    0.00000    0.00000   -0.51299    9    orth
   11      0.463D-03      0.771D-04    -17901.55915560  13749.136315    0.00000    0.00000   -0.47368    9    diag,B
   12      0.311D-03      0.487D-04    -17901.55943232  13748.778714    0.00000    0.00000   -0.45089    9    diag,B
   13      0.282D-03      0.353D-04    -17901.55955705  13748.729218    0.00000    0.00000   -0.44818    9    diag,B
   14      0.945D-04      0.321D-04    -17901.55975888  13748.627377    0.00000    0.00000   -0.44968    9    diag,B
   15      0.127D-03      0.291D-04    -17901.56000036  13748.520713    0.00000    0.00000   -0.45517    9    diag,B
   16      0.141D-03      0.265D-04    -17901.56021048  13748.431035    0.00000    0.00000   -0.46346    9    diag,B
   17      0.154D-03      0.249D-04    -17901.56048643  13748.231783    0.00000    0.00000   -0.47335    9    diag,B
   18      0.204D-03      0.237D-04    -17901.56074819  13748.056618    0.00000    0.00000   -0.48546    9    diag,B
   19      0.208D-03      0.214D-04    -17901.56131722  13747.156876    0.00000    0.00000   -0.51267    9    diag,B
   20      0.520D-03      0.432D-04    -17901.56131758  13747.155280    0.00000    0.00000   -0.51260    9    orth
   21      0.748D-06      0.432D-04    -17901.56127030  13747.264581    0.00000    0.00000   -0.51178    9    diag,B
   22      0.509D-04      0.391D-04    -17901.56125869  13747.281350    0.00000    0.00000   -0.50964    9    diag,B
   23      0.149D-04      0.374D-04    -17901.56133679  13747.134421    0.00000    0.00000   -0.51347    9    diag,B
   24      0.774D-04      0.428D-04    -17901.56130385  13747.201374    0.00000    0.00000   -0.51397    9    diag,B
   25      0.384D-04      0.420D-04    -17901.56130169  13747.210984    0.00000    0.00000   -0.51163    9    diag,B
   26      0.154D-04      0.391D-04    -17901.56136927  13747.095332    0.00000    0.00000   -0.51449    9    diag,B
   27      0.674D-04      0.419D-04    -17901.56127906  13747.290757    0.00000    0.00000   -0.51169    9    diag,B
   28      0.934D-04      0.347D-04    -17901.56131618  13747.199872    0.00000    0.00000   -0.51542    9    diag,B
   29      0.386D-04      0.413D-04    -17901.56155460  13746.762769    0.00000    0.00000   -0.52322    9    diag,B
   30      0.246D-03      0.525D-04    -17901.56154336  13746.790786    0.00000    0.00000   -0.52201    9    orth
   31      0.127D-04      0.501D-04    -17901.56155910  13746.775885    0.00000    0.00000   -0.52233    9    diag,B
   32      0.177D-04      0.489D-04    -17901.56125964  13747.297266    0.00000    0.00000   -0.51124    9    diag,B
   33      0.304D-03      0.370D-04    -17901.56187893  13746.199041    0.00000    0.00000   -0.54014    9    diag,B
   34      0.634D-03      0.723D-04    -17901.56188804  13746.178266    0.00000    0.00000   -0.54018    9    diag,B
   35      0.110D-04      0.731D-04    -17901.56125493  13747.329808    0.00000    0.00000   -0.51111    9    diag,B
   36      0.650D-03      0.345D-04    -17901.56130569  13747.243452    0.00000    0.00000   -0.51195    9    diag,B
   37      0.529D-04      0.351D-04    -17901.56135696  13747.152848    0.00000    0.00000   -0.51499    9    diag,B
   38      0.495D-04      0.383D-04    -17901.56131647  13747.194149    0.00000    0.00000   -0.51291    9    diag,B
   39      0.376D-04      0.392D-04    -17901.56135704  13747.163176    0.00000    0.00000   -0.51635    9    diag,B
   40      0.370D-04      0.389D-04    -17901.56131164  13747.217644    0.00000    0.00000   -0.51491    9    orth
   41      0.443D-04      0.399D-04    -17901.56174258  13746.451313    0.00000    0.00000   -0.53134    9    diag,B
   42      0.447D-03      0.588D-04    -17901.56138107  13747.122380    0.00000    0.00000   -0.51493    9    diag,B
   43      0.368D-03      0.368D-04    -17901.56127821  13747.294873    0.00000    0.00000   -0.51113    9    diag,B
   44      0.106D-03      0.338D-04    -17901.56130100  13747.236156    0.00000    0.00000   -0.51238    9    diag,B
   45      0.239D-04      0.369D-04    -17901.56178688  13746.332072    0.00000    0.00000   -0.53587    9    diag,B
   46      0.499D-03      0.711D-04    -17901.56162381  13746.696293    0.00000    0.00000   -0.52921    9    diag,B
   47      0.184D-03      0.531D-04    -17901.56129468  13747.258261    0.00000    0.00000   -0.51350    9    diag,B
   48      0.328D-03      0.373D-04    -17901.56134090  13747.217270    0.00000    0.00000   -0.51295    9    diag,B
   49      0.577D-04      0.324D-04    -17901.56169761  13746.615497    0.00000    0.00000   -0.52848    9    diag,B
   50      0.358D-03      0.439D-04    -17901.56161361  13746.752517    0.00000    0.00000   -0.52434    9    orth
   51      0.822D-04      0.411D-04    -17901.56130333  13747.302552    0.00000    0.00000   -0.51297    9    diag,B
   52      0.321D-03      0.307D-04    -17901.56129666  13747.306338    0.00000    0.00000   -0.51222    9    diag,B
   53      0.788D-05      0.306D-04    -17901.56131828  13747.232750    0.00000    0.00000   -0.51229    9    diag,B
   54      0.250D-04      0.348D-04    -17901.56132187  13747.226828    0.00000    0.00000   -0.51573    9    diag,B
   55      0.257D-04      0.374D-04    -17901.56193698  13746.079078    0.00000    0.00000   -0.54412    9    diag,B
   56      0.642D-03      0.810D-04    -17901.56180800  13746.322384    0.00000    0.00000   -0.53495    9    diag,B
   57      0.141D-03      0.663D-04    -17901.56130076  13747.269897    0.00000    0.00000   -0.51452    9    diag,B
   58      0.520D-03      0.354D-04    -17901.56155716  13746.837345    0.00000    0.00000   -0.52454    9    diag,B
   59      0.254D-03      0.444D-04    -17901.56162404  13746.325933    0.00000    0.00000   -0.52363    9    orth
   60      0.851D-04      0.688D-04    -17901.56167118  13747.094187    0.00000    0.00000   -0.52395    0    orth

 Final alpha occupancy:  20  10  10   4
 Final beta  occupancy:  19   8  10   4

 !RHF STATE 1.1 Energy               -17901.5616711770    
 Nuclear energy                       217.31544128
 One-electron energy               -24992.42420620
 Two-electron energy                 6873.54709374
 Virial quotient                       -0.67991870
 !RHF STATE 1.1 Dipole moment           0.00000000     0.00000000    -0.52395146
 Dipole moment /Debye                   0.00000000     0.00000000    -1.33166455

 ELECTRON ORBITALS
 =================


   Orb  Occ    Energy  Couls-En    Coefficients

                                   1 1s      1 1s      1 1s      1 1s      1 1s      1 1s      1 1s      1 1s      1 1s      1 1s   
                                   1 1s      1 1s      1 1s      1 1s      1 1s      1 1s      1 1s      1 1s      1 1s      1 1s   
                                   1 1s      1 1s      1 1s      1 1s      1 1s      1 1s      1 1s      1 1s      1 1s      1 1s   
                                   1 1s      1 1s      1 1s      1 1s      1 1s      1 1s      1 1s      1 2pz     1 2pz     1 2pz  
                                   1 2pz     1 2pz     1 2pz     1 2pz     1 2pz     1 2pz     1 2pz     1 2pz     1 2pz     1 2pz  
                                   1 2pz     1 2pz     1 2pz     1 2pz     1 2pz     1 2pz     1 2pz     1 2pz     1 2pz     1 2pz  
                                   1 2pz     1 2pz     1 2pz     1 2pz     1 2pz     1 2pz     1 2pz     1 2pz     1 2pz     1 3d0  
                                   1 3d2+    1 3d0     1 3d2+    1 3d0     1 3d2+    1 3d0     1 3d2+    1 3d0     1 3d2+    1 3d0  
                                   1 3d2+    1 3d0     1 3d2+    1 3d0     1 3d2+    1 3d0     1 3d2+    1 3d0     1 3d2+    1 3d0  
                                   1 3d2+    1 3d0     1 3d2+    1 3d0     1 3d2+    1 3d0     1 3d2+    1 3d0     1 3d2+    1 3d0  
                                   1 3d2+    1 3d0     1 3d2+    1 3d0     1 3d2+    1 3d0     1 3d2+    1 3d0     1 3d2+    1 3d0  
                                   1 3d2+    1 3d0     1 3d2+    1 4f0     1 4f2+    1 4f0     1 4f2+    1 4f0     1 4f2+    1 4f0  
                                   1 4f2+    1 4f0     1 4f2+    1 4f0     1 4f2+    1 4f0     1 4f2+    1 4f0     1 4f2+    1 4f0  
                                   1 4f2+    1 4f0     1 4f2+    1 4f0     1 4f2+    1 4f0     1 4f2+    1 4f0     1 4f2+    1 4f0  
                                   1 4f2+    1 4f0     1 4f2+    1 5g0     1 5g4+    1 5g2+    1 5g0     1 5g4+    1 5g2+    1 5g0  
                                   1 5g4+    1 5g2+    2 1s      2 1s      2 1s      2 1s      2 1s      2 1s      2 1s      2 1s   
                                   2 1s      2 1s      2 1s      2 1s      2 1s      2 2pz     2 2pz     2 2pz     2 2pz     2 2pz  
                                   2 2pz     2 2pz     2 2pz     2 3d0     2 3d2+    2 3d0     2 3d2+    2 3d0     2 3d2+    2 3d0  
                                   2 3d2+    2 4f0     2 4f2+    2 4f0     2 4f2+ 

   1.1   2 -2813.1479-6060.5003  0.000014  0.000038  0.000104  0.000238  0.000499  0.000967  0.001786  0.003190  0.005597  0.009730
                                 0.016892  0.029390  0.051246  0.088886  0.149608  0.231171  0.289997  0.001232  0.238663  0.091363
                                 0.007976  0.001180 -0.001214  0.002510 -0.003705  0.002250 -0.000670  0.000609 -0.001090  0.000872
                                -0.000237  0.000207 -0.000114  0.000008 -0.000004  0.000000 -0.000000 -0.000000 -0.000000 -0.000000
                                -0.000000 -0.000000 -0.000000 -0.000000 -0.000000 -0.000000 -0.000000 -0.000000 -0.000000 -0.000000
                                -0.000000  0.000000 -0.000000  0.000000 -0.000000  0.000000 -0.000000  0.000001 -0.000005  0.000008
                                -0.000009  0.000008 -0.000002 -0.000000  0.000003 -0.000003  0.000003 -0.000001  0.000000  0.000000
                                 0.000000  0.000000  0.000000  0.000000  0.000000  0.000000 -0.000000  0.000000  0.000000  0.000000
                                 0.000000 -0.000000 -0.000000  0.000000  0.000000 -0.000000 -0.000000  0.000000  0.000000 -0.000001
                                -0.000000  0.000004  0.000000 -0.000016 -0.000000  0.000023  0.000000 -0.000020 -0.000000  0.000013
                                 0.000000 -0.000006 -0.000000  0.000010  0.000000 -0.000008 -0.000000  0.000001 -0.000000  0.000000
                                -0.000000 -0.000000 -0.000000  0.000000  0.000000  0.000000  0.000000  0.000000  0.000000  0.000000
                                 0.000000 -0.000000 -0.000000  0.000000 -0.000000 -0.000000 -0.000000  0.000000  0.000000 -0.000001
                                -0.000000  0.000003  0.000000 -0.000004 -0.000000  0.000004  0.000000 -0.000003 -0.000000  0.000001
                                 0.000000 -0.000000 -0.000000 -0.000000 -0.000000 -0.000000  0.000000  0.000000  0.000000 -0.000000
                                -0.000000 -0.000000  0.000000 -0.000000  0.000000 -0.000000  0.000000  0.000002  0.000002  0.000001
                                -0.000001 -0.000002 -0.000003 -0.000002  0.000002 -0.000000 -0.000000  0.000000 -0.000000  0.000001
                                 0.000000  0.000000 -0.000000 -0.000000 -0.000000  0.000000 -0.000000  0.000000 -0.000000 -0.000000
                                -0.000000  0.000000  0.000000 -0.000000 -0.000000

   2.1   2  -497.4443-1326.5132 -0.000005 -0.000015 -0.000040 -0.000091 -0.000192 -0.000372 -0.000688 -0.001231 -0.002168 -0.003790
                                -0.006638 -0.011706 -0.020848 -0.037387 -0.066458 -0.112361 -0.162873 -0.000164 -0.151906  0.044807
                                 0.409144  0.493669  0.184957  0.020354 -0.009378  0.007323 -0.002846  0.002653 -0.005163  0.004204
                                -0.001174  0.001053 -0.000583  0.000044 -0.000020  0.000001 -0.000001 -0.000000 -0.000000 -0.000000
                                -0.000000 -0.000000 -0.000000 -0.000000 -0.000000 -0.000000 -0.000000 -0.000001 -0.000001 -0.000003
                                -0.000001 -0.000005 -0.000008 -0.000007 -0.000003  0.000000 -0.000001  0.000003 -0.000022  0.000037
                                -0.000044  0.000039 -0.000013 -0.000000  0.000013 -0.000017  0.000014 -0.000007  0.000000  0.000000
                                 0.000000  0.000000  0.000000  0.000000  0.000000  0.000000  0.000000  0.000000  0.000000  0.000001
                                 0.000001  0.000003  0.000003  0.000002  0.000002  0.000001  0.000001  0.000002  0.000001 -0.000003
                                 0.000000  0.000017  0.000000 -0.000076 -0.000001  0.000107  0.000001 -0.000098 -0.000001  0.000066
                                 0.000000 -0.000029 -0.000000  0.000052  0.000000 -0.000041 -0.000000  0.000006 -0.000000  0.000002
                                -0.000000 -0.000001 -0.000000  0.000000  0.000000  0.000000  0.000000  0.000000  0.000000 -0.000001
                                -0.000000  0.000001  0.000000  0.000000  0.000000  0.000000  0.000000  0.000001 -0.000000 -0.000005
                                 0.000000  0.000012 -0.000000 -0.000018  0.000000  0.000018 -0.000000 -0.000013  0.000000  0.000006
                                -0.000000 -0.000000  0.000000 -0.000000 -0.000000 -0.000000  0.000001 -0.000000 -0.000000 -0.000001
                                 0.000000  0.000000  0.000000 -0.000000  0.000000 -0.000000  0.000001  0.000011  0.000012  0.000004
                                -0.000003 -0.000010 -0.000014 -0.000008  0.000008 -0.000000 -0.000000  0.000000 -0.000002  0.000004
                                 0.000000  0.000000 -0.000002 -0.000000  0.000000  0.000002  0.000000  0.000000  0.000000 -0.000000
                                -0.000000  0.000000 -0.000000 -0.000001  0.000000

   3.1   2  -433.4871-1210.4001 -0.000000 -0.000000 -0.000000 -0.000000 -0.000000 -0.000000 -0.000000 -0.000000 -0.000000 -0.000000
                                -0.000000 -0.000000 -0.000001 -0.000001 -0.000002 -0.000003 -0.000004  0.000000 -0.000004  0.000002
                                 0.000012  0.000011  0.000003 -0.000001  0.000001 -0.000000  0.000000  0.000000 -0.000000  0.000000
                                -0.000000 -0.000001  0.000001 -0.000001 -0.000000 -0.000000  0.000000  0.000003  0.000008  0.000024
                                 0.000062  0.000153  0.000367  0.000873  0.002085  0.005048  0.012348  0.030033  0.070112  0.147676
                                -0.000313  0.257464  0.326975  0.249424  0.089030  0.009867  0.000453 -0.000268  0.000438 -0.000606
                                 0.000425 -0.000289  0.000079 -0.000022  0.000017 -0.000006  0.000000 -0.000000  0.000000  0.000000
                                 0.000000  0.000000  0.000000  0.000000  0.000000  0.000000  0.000000  0.000000  0.000000  0.000000
                                 0.000000  0.000001  0.000000 -0.000002 -0.000000 -0.000002 -0.000000  0.000000  0.000000  0.000001
                                 0.000000  0.000000  0.000000  0.000001 -0.000000 -0.000002  0.000000  0.000002 -0.000000 -0.000001
                                 0.000000  0.000000 -0.000000 -0.000001  0.000000  0.000001 -0.000000 -0.000000  0.000000  0.000000
                                 0.000000 -0.000000  0.000000  0.000000 -0.000000  0.000001  0.000000  0.000000 -0.000001 -0.000000
                                -0.000001  0.000001  0.000001  0.000001  0.000001  0.000001  0.000001 -0.000000 -0.000000  0.000000
                                 0.000000 -0.000001 -0.000001  0.000001  0.000000 -0.000000 -0.000000  0.000000  0.000000 -0.000000
                                -0.000000  0.000000 -0.000000 -0.000000 -0.000000  0.000000  0.000000  0.000000 -0.000000 -0.000000
                                -0.000000  0.000000 -0.000000 -0.000000 -0.000000 -0.000000 -0.000000 -0.000000 -0.000000  0.000000
                                -0.000000  0.000000  0.000000  0.000000  0.000000  0.000000 -0.000000 -0.000000 -0.000000 -0.000000
                                -0.000000 -0.000000 -0.000000  0.000000  0.000000  0.000000  0.000000 -0.000000  0.000000  0.000000
                                 0.000000 -0.000000  0.000000  0.000000 -0.000000

   4.1   2  -118.7353 -471.2274  0.000003  0.000007  0.000019  0.000044  0.000092  0.000177  0.000328  0.000588  0.001036  0.001813
                                 0.003180  0.005620  0.010045  0.018112  0.032505  0.055828  0.083247 -0.000087  0.079915 -0.039624
                                -0.341914 -0.547897 -0.085103  0.718968  0.018507  0.538134  0.080484  0.008729 -0.013380  0.011900
                                -0.003859  0.003530 -0.002025  0.000157 -0.000071  0.000004 -0.000002  0.000000  0.000000  0.000000
                                 0.000000  0.000000  0.000000  0.000000  0.000000  0.000000  0.000001  0.000002  0.000004  0.000009
                                 0.000001  0.000016  0.000022  0.000011 -0.000012 -0.000060 -0.000061  0.000012 -0.000108  0.000169
                                -0.000192  0.000163 -0.000057  0.000006  0.000038 -0.000054  0.000050 -0.000024  0.000001  0.000000
                                 0.000000  0.000000  0.000000  0.000000  0.000000  0.000000  0.000000  0.000002  0.000001  0.000004
                                 0.000002  0.000010  0.000002  0.000027  0.000008  0.000037  0.000014  0.000068  0.000044  0.000036
                                 0.000028  0.000038 -0.000009 -0.000189  0.000029  0.000284 -0.000029 -0.000281  0.000017  0.000197
                                -0.000007 -0.000094  0.000002  0.000177 -0.000001 -0.000139  0.000001  0.000022  0.000000  0.000008
                                 0.000000 -0.000005  0.000000  0.000000  0.000000 -0.000000 -0.000000 -0.000001 -0.000000  0.000001
                                 0.000000  0.000018  0.000003  0.000005  0.000001 -0.000006 -0.000001  0.000009  0.000001 -0.000021
                                -0.000001  0.000050  0.000002 -0.000068 -0.000001  0.000065  0.000001 -0.000047 -0.000000  0.000024
                                 0.000000 -0.000001 -0.000000  0.000003  0.000002  0.000006 -0.000001 -0.000001 -0.000005 -0.000001
                                 0.000000  0.000002  0.000000 -0.000000  0.000000 -0.000000  0.000002  0.000028  0.000033  0.000012
                                -0.000010 -0.000037 -0.000040 -0.000020  0.000030 -0.000001 -0.000001  0.000000 -0.000006  0.000017
                                 0.000001  0.000000 -0.000008 -0.000000 -0.000000  0.000006 -0.000000  0.000000 -0.000000 -0.000002
                                -0.000000  0.000002  0.000000 -0.000004  0.000000

   5.1   2   -99.6520 -434.4114  0.000000  0.000000  0.000000  0.000000  0.000000  0.000000  0.000000  0.000000  0.000000  0.000000
                                 0.000000  0.000001  0.000001  0.000002  0.000004  0.000007  0.000011 -0.000000  0.000011 -0.000006
                                -0.000048 -0.000080  0.000005  0.000143 -0.000043  0.000055  0.000013 -0.000019  0.000082 -0.000092
                                 0.000064 -0.000113  0.000081 -0.000015  0.000011 -0.000004  0.000001 -0.000001 -0.000004 -0.000012
                                -0.000032 -0.000079 -0.000189 -0.000450 -0.001078 -0.002625 -0.006472 -0.015961 -0.038049 -0.083084
                                 0.000804 -0.151974 -0.196301 -0.091912  0.227198  0.497321  0.337499  0.075570  0.016920 -0.015547
                                 0.014354 -0.010343  0.003118 -0.001127  0.000811 -0.000301  0.000027 -0.000003  0.000001 -0.000000
                                -0.000000 -0.000000 -0.000000 -0.000000 -0.000000 -0.000000 -0.000000 -0.000002 -0.000000 -0.000005
                                -0.000000 -0.000014 -0.000000 -0.000026 -0.000000 -0.000037 -0.000000 -0.000019  0.000004  0.000002
                                 0.000003 -0.000036 -0.000003  0.000122  0.000006 -0.000162 -0.000006  0.000148  0.000004 -0.000096
                                -0.000001  0.000051  0.000001 -0.000093 -0.000000  0.000073  0.000000 -0.000012 -0.000000  0.000007
                                -0.000000 -0.000000 -0.000000 -0.000000  0.000000 -0.000001 -0.000000  0.000002  0.000000  0.000009
                                 0.000005  0.000037  0.000026  0.000024  0.000007 -0.000005 -0.000010  0.000008  0.000007 -0.000003
                                -0.000002  0.000011  0.000013 -0.000000 -0.000007 -0.000006  0.000007  0.000013 -0.000001 -0.000007
                                 0.000001  0.000004  0.000000  0.000009  0.000000  0.000001 -0.000012 -0.000000 -0.000001  0.000005
                                 0.000000  0.000000  0.000000  0.000000 -0.000000  0.000000 -0.000000 -0.000003 -0.000002 -0.000001
                                 0.000001 -0.000007  0.000003  0.000002  0.000003  0.000000  0.000000  0.000002  0.000004 -0.000003
                                -0.000000 -0.000000 -0.000001 -0.000001 -0.000000 -0.000004 -0.000000 -0.000000  0.000000  0.000003
                                -0.000000 -0.000000 -0.000000  0.000002  0.000000

   6.1   2   -77.8303 -399.4924 -0.000000 -0.000000 -0.000000 -0.000000 -0.000000 -0.000000 -0.000000 -0.000000 -0.000000 -0.000000
                                -0.000000 -0.000001 -0.000001 -0.000002 -0.000003 -0.000005 -0.000008  0.000000 -0.000007  0.000004
                                 0.000029  0.000051  0.000019 -0.000068 -0.000030 -0.000031 -0.000019  0.000015 -0.000054  0.000067
                                -0.000046  0.000109 -0.000093  0.000030 -0.000004  0.000000  0.000000 -0.000000 -0.000000 -0.000000
                                -0.000000 -0.000000 -0.000000 -0.000000 -0.000000 -0.000000 -0.000000 -0.000001 -0.000002 -0.000003
                                -0.000001 -0.000005 -0.000009 -0.000007 -0.000006  0.000024  0.000053  0.000014 -0.000032  0.000075
                                -0.000120  0.000132 -0.000068  0.000059 -0.000070  0.000029  0.000016 -0.000004  0.000001  0.000020
                                -0.000011  0.000120 -0.000069  0.000673 -0.000384  0.003101 -0.001769  0.011911 -0.006794  0.036849
                                -0.021018  0.093279 -0.053204  0.184903 -0.105463  0.275344 -0.157041  0.272998 -0.155669  0.143719
                                -0.081923  0.034596 -0.019720 -0.002642  0.001501  0.005584 -0.003167 -0.001489  0.000827  0.001078
                                -0.000596 -0.000147  0.000072  0.000233 -0.000104 -0.000160  0.000064  0.000026 -0.000006 -0.000001
                                 0.000002  0.000000 -0.000000 -0.000000  0.000000 -0.000000  0.000000 -0.000002  0.000001 -0.000006
                                 0.000003 -0.000005  0.000011  0.000000  0.000006  0.000002 -0.000001  0.000003  0.000003 -0.000004
                                -0.000002  0.000005  0.000004 -0.000006 -0.000003  0.000004  0.000002 -0.000007 -0.000001  0.000008
                                 0.000000 -0.000001  0.000000  0.000021 -0.000005  0.000004 -0.000026  0.000006 -0.000004  0.000011
                                -0.000002  0.000002  0.000000 -0.000000  0.000000 -0.000000  0.000000  0.000003  0.000004 -0.000003
                                -0.000001 -0.000017 -0.000005 -0.000002 -0.000000 -0.000000 -0.000000  0.000001  0.000003  0.000010
                                 0.000000  0.000000 -0.000001 -0.000000  0.000000  0.000002 -0.000000  0.000000  0.000000 -0.000002
                                -0.000000 -0.000000  0.000000 -0.000002  0.000000

   7.1   2   -77.8215 -399.4828 -0.000000 -0.000000 -0.000000 -0.000000 -0.000000 -0.000000 -0.000000 -0.000000 -0.000000 -0.000000
                                -0.000001 -0.000001 -0.000002 -0.000003 -0.000006 -0.000010 -0.000015  0.000001 -0.000015  0.000009
                                 0.000064  0.000112  0.000002 -0.000244  0.000062 -0.000060  0.000006  0.000008 -0.000015  0.000030
                                -0.000023  0.000057 -0.000048  0.000014 -0.000001  0.000000  0.000000 -0.000000 -0.000000 -0.000000
                                -0.000000 -0.000000 -0.000000 -0.000000 -0.000000 -0.000000 -0.000000 -0.000000 -0.000001 -0.000001
                                -0.000001 -0.000001 -0.000003 -0.000004 -0.000009  0.000009  0.000036  0.000005 -0.000008  0.000028
                                -0.000052  0.000061 -0.000032  0.000028 -0.000031  0.000012  0.000008 -0.000002  0.000000  0.000011
                                 0.000020  0.000069  0.000120  0.000384  0.000673  0.001768  0.003101  0.006792  0.011913  0.021013
                                 0.036854  0.053191  0.093292  0.105438  0.184925  0.157017  0.275375  0.155688  0.272985  0.081965
                                 0.143670  0.019730  0.034582 -0.001513 -0.002642  0.003190  0.005562 -0.000853 -0.001456  0.000618
                                 0.001049 -0.000084 -0.000127  0.000132  0.000184 -0.000090 -0.000113  0.000013  0.000011 -0.000001
                                -0.000003  0.000000  0.000001 -0.000000 -0.000000 -0.000000 -0.000000 -0.000001 -0.000002 -0.000004
                                -0.000005 -0.000006 -0.000019 -0.000001 -0.000010  0.000001  0.000002  0.000001 -0.000005 -0.000002
                                 0.000003  0.000002 -0.000007 -0.000004  0.000006  0.000003 -0.000004 -0.000004  0.000001  0.000004
                                 0.000000 -0.000001  0.000000  0.000006  0.000005  0.000009 -0.000009 -0.000006 -0.000012  0.000004
                                 0.000002  0.000005  0.000000 -0.000000  0.000000 -0.000000  0.000000  0.000002  0.000003 -0.000001
                                -0.000001 -0.000008 -0.000003 -0.000001  0.000000 -0.000000 -0.000000  0.000000  0.000001  0.000005
                                 0.000000  0.000000 -0.000000 -0.000000  0.000000  0.000001  0.000000  0.000000  0.000000 -0.000001
                                -0.000000 -0.000000 -0.000000 -0.000001  0.000000

   8.1   2   -26.5804 -205.2183 -0.000001 -0.000003 -0.000009 -0.000022 -0.000045 -0.000088 -0.000163 -0.000292 -0.000514 -0.000900
                                -0.001579 -0.002793 -0.004995 -0.009023 -0.016217 -0.028004 -0.041784 -0.000420 -0.040148  0.021874
                                 0.196038  0.334857  0.051170 -0.765092 -0.019302 -0.737969  0.497714  0.940441 -0.088780  0.275624
                                -0.043904  0.046844 -0.025875  0.002227 -0.000974  0.000062 -0.000026 -0.000000 -0.000000 -0.000000
                                -0.000000 -0.000000 -0.000000 -0.000000 -0.000000 -0.000000 -0.000000 -0.000000 -0.000001 -0.000000
                                -0.000004  0.000002 -0.000006  0.000002 -0.000011  0.000027  0.000003  0.000096 -0.000707  0.001078
                                -0.001630  0.001666 -0.000679  0.000267  0.000227 -0.000632  0.000715 -0.000320  0.000020 -0.000000
                                -0.000000 -0.000000 -0.000000 -0.000000 -0.000000 -0.000002 -0.000001 -0.000007 -0.000002 -0.000019
                                -0.000006 -0.000051 -0.000014 -0.000101 -0.000033 -0.000156 -0.000043 -0.000126 -0.000068 -0.000008
                                -0.000008  0.000757  0.000082 -0.002094 -0.000071  0.003416  0.000307 -0.002833  0.000048  0.002350
                                 0.000071 -0.001067 -0.000016  0.002239  0.000025 -0.001856 -0.000013  0.000316  0.000018  0.000122
                                 0.000008 -0.000068  0.000001 -0.000000  0.000000  0.000000  0.000000  0.000001  0.000000  0.000004
                                 0.000001 -0.000009 -0.000000 -0.000007 -0.000000 -0.000013  0.000002  0.000195  0.000029 -0.000124
                                 0.000003  0.000352 -0.000005 -0.000608 -0.000002  0.000635  0.000000 -0.000557 -0.000005  0.000310
                                 0.000011 -0.000013  0.000003  0.000149  0.000063  0.000255 -0.000173 -0.000076 -0.000316  0.000037
                                 0.000024  0.000108  0.000000 -0.000000  0.000000 -0.000001  0.000011  0.000220  0.000308  0.000126
                                -0.000117 -0.000551 -0.000346 -0.000151  0.000395 -0.000003 -0.000008  0.000009 -0.000067  0.000243
                                 0.000007  0.000001 -0.000107 -0.000001  0.000001  0.000099 -0.000005  0.000001 -0.000000 -0.000023
                                -0.000007  0.000009 -0.000001 -0.000056  0.000011

   9.1   2   -20.6419  -79.7584 -0.000000 -0.000000 -0.000000 -0.000000 -0.000000 -0.000000 -0.000000 -0.000000 -0.000000 -0.000000
                                -0.000000 -0.000000  0.000000 -0.000001  0.000001 -0.000005  0.000031 -0.000067  0.000065 -0.000066
                                 0.000126 -0.000283  0.000851 -0.004556  0.010562 -0.009821  0.007209 -0.016175  0.057278 -0.061404
                                 0.040526 -0.074807  0.056417 -0.013592 -0.011677 -0.000814  0.000105  0.000000  0.000000  0.000000
                                 0.000000  0.000000  0.000000  0.000000  0.000000  0.000000  0.000000  0.000000  0.000002 -0.000003
                                 0.000019 -0.000018  0.000020 -0.000024  0.000040 -0.000120  0.000233 -0.000743  0.006536 -0.011291
                                 0.014445 -0.012652  0.004382 -0.000663 -0.005812  0.009843 -0.015467 -0.003593  0.000061  0.000000
                                 0.000000 -0.000000  0.000000  0.000000  0.000000 -0.000000  0.000000  0.000001  0.000000 -0.000003
                                 0.000000  0.000014  0.000000 -0.000026  0.000000  0.000082  0.000000 -0.000180  0.000001  0.000530
                                -0.000003 -0.002918  0.000011  0.015088 -0.000063 -0.022566  0.000091  0.022999 -0.000093 -0.016426
                                 0.000067  0.008560 -0.000032 -0.018776  0.000069  0.016376 -0.000051 -0.002303  0.000016 -0.005830
                                -0.000011  0.000028 -0.000003 -0.000000 -0.000000  0.000000  0.000000 -0.000001 -0.000000  0.000002
                                 0.000000 -0.000006 -0.000000  0.000012  0.000001 -0.000030 -0.000002  0.000044  0.000005  0.000045
                                -0.000028 -0.000469  0.000069  0.000990 -0.000102 -0.001248  0.000105  0.002360 -0.000074 -0.000802
                                 0.000050 -0.001641 -0.000019  0.000161 -0.000000  0.000005 -0.000426  0.000000 -0.000011  0.000787
                                -0.000000  0.000010  0.000742  0.004245  0.020668  0.080038  0.228936  0.399288  0.315585 -0.019176
                                 0.051959  0.024709  0.041120  0.024385  0.007644  0.000039 -0.000381 -0.001361  0.002617 -0.010225
                                -0.000402 -0.000069 -0.001898  0.000173 -0.000176 -0.001275 -0.000151 -0.000003  0.000157  0.001997
                                 0.000016  0.000186  0.000006  0.000360  0.000004

  10.1   2   -20.2002 -187.9577 -0.000000 -0.000000 -0.000000 -0.000000 -0.000000 -0.000000 -0.000000 -0.000000 -0.000000 -0.000000
                                -0.000000 -0.000000 -0.000000 -0.000000 -0.000000 -0.000000 -0.000000 -0.000001 -0.000000 -0.000000
                                 0.000006  0.000006  0.000006 -0.000143  0.000215 -0.000170  0.000281 -0.000327 -0.000150  0.000195
                                 0.000091  0.000512 -0.000570  0.000236  0.000042  0.000004  0.000001  0.000001  0.000002  0.000006
                                 0.000016  0.000039  0.000093  0.000222  0.000532  0.001296  0.003202  0.007920  0.018988  0.041754
                                -0.000289  0.077222  0.100619  0.035798 -0.175770 -0.409262 -0.201666  0.354270  0.579970 -0.004061
                                 0.297599 -0.022365  0.044900 -0.001352  0.001912 -0.000427  0.000237 -0.000012  0.000008  0.000000
                                 0.000000  0.000000  0.000000  0.000000  0.000000  0.000000  0.000000  0.000002  0.000000  0.000006
                                 0.000000  0.000016  0.000001  0.000029  0.000001  0.000049  0.000002  0.000018 -0.000001 -0.000096
                                -0.000009 -0.000226 -0.000011  0.000028 -0.000022 -0.000137  0.000039  0.000392  0.000010  0.000063
                                 0.000019  0.000087 -0.000009  0.000077  0.000010 -0.000179 -0.000010  0.000139  0.000006  0.000049
                                 0.000001  0.000001  0.000000  0.000000  0.000000  0.000001  0.000001  0.000003  0.000002  0.000014
                                 0.000007  0.000013 -0.000003  0.000078  0.000005  0.000164  0.000023  0.000374  0.000232  0.000543
                                 0.000205 -0.000406 -0.000160  0.000428  0.000063 -0.000343 -0.000074  0.000129  0.000002  0.000012
                                -0.000006  0.000017 -0.000002  0.000363 -0.000000  0.000051 -0.000510  0.000000 -0.000071  0.000215
                                 0.000000  0.000030 -0.000000 -0.000000 -0.000001 -0.000004 -0.000014 -0.000047 -0.000037 -0.000064
                                 0.000001 -0.000221  0.000027  0.000017 -0.000033  0.000001 -0.000000  0.000005  0.000056  0.000086
                                -0.000001 -0.000000  0.000001 -0.000000  0.000001  0.000010 -0.000003  0.000000 -0.000000 -0.000003
                                -0.000001 -0.000020  0.000001 -0.000010  0.000004

  11.1   2   -12.0478 -166.8731  0.000000  0.000000  0.000000  0.000000  0.000000  0.000000  0.000000  0.000000  0.000001  0.000001
                                 0.000002  0.000004  0.000007  0.000012  0.000022  0.000038  0.000057 -0.000001  0.000055 -0.000031
                                -0.000264 -0.000467 -0.000066  0.001080  0.000188  0.000899 -0.000592 -0.002248 -0.001427  0.001790
                                 0.000074  0.004428 -0.004102  0.001023  0.000253  0.000091 -0.000019 -0.000000 -0.000000 -0.000000
                                -0.000000 -0.000000 -0.000000 -0.000000 -0.000000 -0.000001 -0.000002 -0.000005 -0.000013 -0.000027
                                -0.000003 -0.000049 -0.000070 -0.000016  0.000132  0.000349  0.000040 -0.000333 -0.002459  0.003194
                                -0.004887  0.006305 -0.003028  0.003548 -0.004340  0.001752  0.000640  0.000137  0.000002 -0.000011
                                 0.000004 -0.000065  0.000027 -0.000367  0.000149 -0.001694  0.000689 -0.006559  0.002667 -0.020468
                                 0.008322 -0.052775  0.021459 -0.105199  0.042775 -0.152575  0.062035 -0.114604  0.046563  0.100732
                                -0.041074  0.336947 -0.137093  0.026605 -0.010975  0.354116 -0.143690  0.026764 -0.011124  0.183516
                                -0.073674  0.042257 -0.016843 -0.004845  0.002595  0.004165 -0.002402  0.000479  0.000077  0.000269
                                -0.000029 -0.000005  0.000007  0.000000  0.000000  0.000001  0.000000  0.000007  0.000001  0.000025
                                 0.000005  0.000064  0.000010  0.000108  0.000028  0.000155  0.000044  0.000174  0.000084  0.000556
                                 0.000037 -0.000874 -0.000057  0.001142 -0.000001 -0.000956 -0.000016  0.000266  0.000001  0.000206
                                 0.000011  0.000059  0.000003  0.002001 -0.000275  0.000168 -0.002231  0.000335 -0.000285  0.000864
                                -0.000110  0.000081 -0.000000 -0.000000 -0.000001 -0.000004 -0.000016 -0.000078 -0.000047 -0.000183
                                -0.000030 -0.000799  0.000046  0.000037 -0.000270  0.000000 -0.000012  0.000011  0.000085  0.000280
                                -0.000003 -0.000001  0.000056  0.000019  0.000001  0.000153 -0.000003  0.000000 -0.000000  0.000001
                                -0.000005 -0.000105 -0.000001 -0.000082  0.000010

  12.1   2   -12.0291 -166.8609  0.000000  0.000000  0.000000  0.000000  0.000000  0.000000  0.000000  0.000000  0.000001  0.000001
                                 0.000002  0.000004  0.000007  0.000013  0.000023  0.000040  0.000060  0.000001  0.000058 -0.000032
                                -0.000292 -0.000502 -0.000093  0.001435 -0.000179  0.001363 -0.001294 -0.002849  0.000613  0.001050
                                 0.000641  0.000675 -0.000830  0.000149  0.000012  0.000005 -0.000004 -0.000000 -0.000000 -0.000000
                                -0.000000 -0.000000 -0.000000 -0.000000 -0.000000 -0.000000 -0.000001 -0.000003 -0.000007 -0.000015
                                -0.000000 -0.000027 -0.000036 -0.000010  0.000072  0.000179  0.000031 -0.000214 -0.000925  0.000986
                                -0.001330  0.001914 -0.000802  0.000920 -0.001121  0.000424  0.000083  0.000026 -0.000003 -0.000004
                                -0.000011 -0.000027 -0.000065 -0.000149 -0.000367 -0.000687 -0.001696 -0.002659 -0.006567 -0.008298
                                -0.020493 -0.021396 -0.052840 -0.042649 -0.105324 -0.061860 -0.152762 -0.046470 -0.114673  0.040795
                                 0.101029  0.136561  0.337494  0.010739  0.026780  0.143680  0.354305  0.010736  0.026869  0.074777
                                 0.182522  0.017413  0.041942 -0.002261 -0.006307  0.001997  0.005781  0.000038 -0.000173  0.000058
                                 0.000090 -0.000004 -0.000016  0.000000 -0.000000  0.000000 -0.000000  0.000002 -0.000002  0.000009
                                -0.000012  0.000023 -0.000026  0.000037 -0.000068  0.000049 -0.000106  0.000038 -0.000211  0.000168
                                -0.000092 -0.000256  0.000136  0.000348  0.000012 -0.000275  0.000048  0.000083 -0.000033  0.000029
                                 0.000041  0.000010  0.000008  0.000508  0.000387  0.001020 -0.000525 -0.000480 -0.001069  0.000241
                                 0.000188  0.000411 -0.000000 -0.000000 -0.000001 -0.000002 -0.000007 -0.000032 -0.000028 -0.000033
                                -0.000008 -0.000100  0.000024  0.000014 -0.000031  0.000000 -0.000003  0.000003  0.000000  0.000026
                                -0.000001 -0.000000  0.000012  0.000010  0.000001  0.000047 -0.000034  0.000000 -0.000000  0.000005
                                -0.000030 -0.000033  0.000002 -0.000017  0.000047

  13.1   2    -4.2088  -91.0038  0.000001  0.000001  0.000004  0.000009  0.000019  0.000037  0.000069  0.000123  0.000217  0.000380
                                 0.000666  0.001178  0.002107  0.003808  0.006847  0.011838  0.017667  0.000224  0.016978 -0.009457
                                -0.085553 -0.148475 -0.023555  0.391262  0.009557  0.393177 -0.357352 -0.902602 -0.117259 -0.008243
                                 0.805457  0.124124  0.451749  0.032753 -0.014555 -0.000548 -0.000075 -0.000000 -0.000000 -0.000000
                                -0.000000 -0.000000 -0.000000 -0.000001 -0.000003 -0.000006 -0.000016 -0.000039 -0.000096 -0.000201
                                -0.000027 -0.000355 -0.000528 -0.000129  0.000886  0.002425  0.000560 -0.001306 -0.017671  0.024088
                                -0.039473  0.038955 -0.013409  0.009992  0.016866 -0.021185  0.001846 -0.005148 -0.000152  0.000000
                                -0.000000  0.000000 -0.000000  0.000002 -0.000000  0.000010 -0.000001  0.000036 -0.000003  0.000119
                                -0.000008  0.000285 -0.000023  0.000627 -0.000042  0.000777 -0.000067  0.000828 -0.000017 -0.001336
                                 0.000068  0.001036  0.000261 -0.018162 -0.000203  0.025621  0.000575 -0.031551 -0.000748  0.023859
                                 0.000570 -0.011018 -0.000841  0.034667 -0.000403 -0.023041 -0.001101 -0.001507 -0.000014  0.000143
                                 0.000087 -0.001111 -0.000017  0.000001  0.000000  0.000007  0.000000  0.000040  0.000002  0.000142
                                 0.000007  0.000396  0.000021  0.000767  0.000037  0.001130  0.000067  0.001046  0.000043  0.000415
                                 0.000051  0.001610 -0.000067 -0.005302 -0.000079  0.007929 -0.000155 -0.008410  0.000109  0.003063
                                 0.000152 -0.000029  0.000206 -0.000820 -0.000033  0.000002  0.002084  0.000114  0.000250 -0.001853
                                -0.000330 -0.001020 -0.000004 -0.000022 -0.000107 -0.000424 -0.001303 -0.002830 -0.002983  0.012011
                                 0.000922  0.006282 -0.000445 -0.000050  0.009771 -0.000125 -0.001440 -0.004588 -0.011982 -0.005713
                                -0.000201 -0.000076 -0.002054  0.001634 -0.000031  0.005894 -0.000086  0.000051 -0.000005  0.001577
                                -0.000240 -0.001185 -0.000062 -0.001321  0.000153

  14.1   2    -2.9952 -139.6873  0.000000  0.000000  0.000000  0.000000  0.000000  0.000000  0.000000  0.000001  0.000001  0.000002
                                 0.000003  0.000006  0.000011  0.000019  0.000035  0.000056  0.000106 -0.000038  0.000122 -0.000085
                                -0.000352 -0.000905  0.000403 -0.000887  0.006685 -0.004449  0.003432 -0.016603  0.050822 -0.061674
                                 0.051908 -0.085620  0.063935  0.009652  0.006121  0.003028 -0.000489  0.000000  0.000000  0.000000
                                 0.000000  0.000001  0.000001  0.000003  0.000008  0.000018  0.000046  0.000113  0.000274  0.000589
                                 0.000035  0.001068  0.001482  0.000428 -0.002650 -0.006752 -0.002214  0.005870  0.031211 -0.032928
                                 0.059830 -0.060286  0.018126 -0.038415  0.002933  0.006619  0.005281  0.003642  0.000327 -0.000000
                                 0.000000 -0.000000  0.000000 -0.000000  0.000000 -0.000003  0.000000 -0.000009  0.000000 -0.000032
                                 0.000001 -0.000068  0.000004 -0.000170  0.000007 -0.000169  0.000011 -0.000289  0.000005  0.000531
                                -0.000006 -0.001607 -0.000048  0.011915  0.000127 -0.018019 -0.000224  0.021440  0.000170 -0.016910
                                -0.000134  0.012705  0.000269 -0.032307 -0.000202  0.026008  0.000365  0.001625 -0.000069  0.001484
                                -0.000025  0.000485 -0.000002 -0.000204  0.000073 -0.001899  0.000676 -0.010823  0.003854 -0.039440
                                 0.014049 -0.105789  0.037673 -0.209155  0.074507 -0.286972  0.102171 -0.292599  0.104285 -0.210807
                                 0.074607 -0.003553  0.001983 -0.092210  0.032183 -0.006982  0.001393 -0.011698  0.006455 -0.000985
                                -0.000205 -0.000243  0.000297 -0.000127  0.000038  0.000081 -0.001582 -0.000048  0.000024  0.001587
                                 0.000020  0.000037  0.000003  0.000018  0.000090  0.000360  0.001076  0.001834  0.001553 -0.011647
                                -0.000225 -0.014694  0.001507  0.000435 -0.008973  0.000163  0.001483  0.003650  0.012409  0.010158
                                 0.000056  0.000047  0.001598 -0.001328  0.000030 -0.006109  0.000143 -0.000033  0.000005 -0.002234
                                 0.000006  0.001358 -0.000014  0.001346 -0.000073

  15.1   2    -2.9769 -139.8344 -0.000000 -0.000000 -0.000000 -0.000000 -0.000000 -0.000000 -0.000000 -0.000000 -0.000000 -0.000001
                                -0.000001 -0.000002 -0.000004 -0.000006 -0.000012 -0.000019 -0.000036  0.000013 -0.000041  0.000029
                                 0.000117  0.000305 -0.000143  0.000334 -0.002316  0.001582 -0.001243  0.005530 -0.017265  0.021347
                                -0.017423  0.028078 -0.021653 -0.002664 -0.001417 -0.000857  0.000144 -0.000000 -0.000000 -0.000000
                                -0.000000 -0.000000 -0.000000 -0.000001 -0.000002 -0.000006 -0.000014 -0.000034 -0.000083 -0.000179
                                -0.000011 -0.000324 -0.000451 -0.000129  0.000804  0.002084  0.000665 -0.001849 -0.010352  0.011227
                                -0.019428  0.020589 -0.005969  0.010471 -0.001203 -0.004022 -0.001676 -0.000966 -0.000106  0.000000
                                -0.000000  0.000000 -0.000000  0.000000 -0.000000  0.000001 -0.000000  0.000003 -0.000000  0.000011
                                -0.000000  0.000024 -0.000001  0.000060 -0.000002  0.000060 -0.000002  0.000101 -0.000011 -0.000184
                                 0.000022  0.000553 -0.000042 -0.004116  0.000463  0.006216 -0.000699 -0.007390  0.000583  0.005819
                                -0.000566 -0.004312  0.000844  0.010825 -0.000533 -0.008639  0.001186 -0.000481 -0.000386 -0.000393
                                -0.000149 -0.000140 -0.000021  0.000072  0.000204  0.000675  0.001903  0.003848  0.010848  0.014020
                                 0.039534  0.037608  0.106026  0.074352  0.209680  0.102018  0.287554  0.103940  0.293258  0.074724
                                 0.209369  0.001489  0.006043  0.032748  0.090596  0.002773  0.004587  0.004437  0.018429  0.000439
                                -0.000480  0.000177  0.000923 -0.000088  0.000110  0.000127  0.000705 -0.000142  0.000195 -0.000597
                                 0.000061  0.000079 -0.000001 -0.000006 -0.000029 -0.000118 -0.000357 -0.000681 -0.000647  0.003774
                                 0.000127  0.004444 -0.000349 -0.000090  0.002636 -0.000051 -0.000493 -0.001304 -0.004117 -0.003243
                                -0.000030 -0.000018 -0.000475  0.000458  0.000055  0.001989  0.000284  0.000011  0.000003  0.000715
                                -0.000197 -0.000450 -0.000176 -0.000437 -0.000115

  16.1   2    -2.5148  -77.7945 -0.000000 -0.000000 -0.000000 -0.000000 -0.000001 -0.000001 -0.000002 -0.000004 -0.000007 -0.000012
                                -0.000022 -0.000038 -0.000068 -0.000122 -0.000222 -0.000376 -0.000615  0.000090 -0.000643  0.000402
                                 0.002583  0.005229 -0.000519 -0.005677 -0.017085  0.003047 -0.000685  0.062188 -0.118667  0.138392
                                -0.128504  0.138516 -0.097723 -0.041955 -0.029388 -0.012857  0.002135 -0.000000 -0.000001 -0.000002
                                -0.000006 -0.000014 -0.000035 -0.000083 -0.000199 -0.000486 -0.001201 -0.002971 -0.007134 -0.015699
                                 0.000065 -0.029086 -0.038042 -0.012481  0.072040  0.171785  0.071693 -0.200747 -0.373384  0.022657
                                -0.206142  0.089439  0.313473  0.529033  0.068588  0.198641  0.001270 -0.018260 -0.000879  0.000000
                                -0.000000  0.000000 -0.000000  0.000002 -0.000000  0.000010 -0.000001  0.000034 -0.000003  0.000118
                                -0.000011  0.000268 -0.000028  0.000626 -0.000056  0.000698 -0.000081  0.000922 -0.000055 -0.001628
                                 0.000081  0.003538  0.000223 -0.030942  0.000057  0.046067  0.000180 -0.054970  0.000089  0.041656
                                -0.000150 -0.026995 -0.000499  0.055571 -0.000463 -0.033929 -0.000226 -0.007315  0.000166 -0.007035
                                 0.000326 -0.002679  0.000063 -0.000010  0.000001 -0.000095  0.000012 -0.000535  0.000071 -0.001962
                                 0.000255 -0.005217  0.000701 -0.010401  0.001373 -0.014030  0.001949 -0.014539  0.001871 -0.009629
                                 0.000965  0.002056 -0.000275 -0.011303 -0.000299  0.019018 -0.001979 -0.015247 -0.001405  0.002120
                                -0.001652 -0.002886 -0.000470 -0.001101  0.000000  0.000207  0.004009 -0.000005 -0.000403 -0.001528
                                 0.000018  0.000448 -0.000025 -0.000143 -0.000709 -0.002784 -0.008818 -0.022460 -0.027497  0.078865
                                 0.017634  0.068438  0.003393  0.001849  0.037403 -0.000780 -0.008728 -0.028655 -0.057793 -0.039876
                                -0.001048 -0.000417 -0.006613  0.005901 -0.000153  0.019612 -0.000267  0.000206 -0.000031  0.008101
                                -0.000089 -0.003599 -0.000181 -0.003693 -0.000105

  17.1   2    -1.3300  -40.7812 -0.000000 -0.000000 -0.000000 -0.000001 -0.000002 -0.000004 -0.000008 -0.000014 -0.000025 -0.000044
                                -0.000077 -0.000136 -0.000244 -0.000440 -0.000792 -0.001367 -0.002050 -0.000009 -0.001980  0.001114
                                 0.009894  0.017350  0.002494 -0.044872 -0.004570 -0.043414  0.040895  0.125454 -0.015748  0.035293
                                -0.158032 -0.049823 -0.014157 -0.045815 -0.094021 -0.023820  0.003428  0.000000  0.000000  0.000001
                                 0.000002  0.000004  0.000010  0.000023  0.000056  0.000137  0.000338  0.000840  0.002007  0.004472
                                -0.000169  0.008379  0.010612  0.003707 -0.020838 -0.047974 -0.022224  0.065119  0.040825  0.120868
                                -0.141083  0.184571 -0.208571 -0.121365 -0.027771 -0.080195 -0.085133 -0.044035 -0.002222  0.000001
                                -0.000000  0.000005 -0.000000  0.000026 -0.000001  0.000119 -0.000002  0.000458 -0.000009  0.001440
                                -0.000029  0.003702 -0.000074  0.007438 -0.000149  0.010629 -0.000210  0.007678 -0.000156 -0.010477
                                 0.000224 -0.024705  0.000467 -0.024402  0.000645  0.006026 -0.000357 -0.044255  0.001201  0.033583
                                -0.000955  0.026638 -0.000766  0.044513 -0.001201  0.054769 -0.000374  0.039767 -0.001870 -0.025154
                                -0.000356 -0.005438 -0.000185 -0.000007 -0.000000 -0.000069 -0.000001 -0.000394 -0.000007 -0.001433
                                -0.000024 -0.003855 -0.000068 -0.007577 -0.000136 -0.010280 -0.000190 -0.009947 -0.000194 -0.006905
                                 0.000196  0.006202 -0.000513 -0.013675  0.001018  0.030492 -0.000429 -0.013736  0.001503  0.012639
                                -0.000304 -0.007846  0.000837  0.000619  0.000003 -0.000386  0.002949 -0.000044  0.000563  0.002447
                                 0.000058 -0.000520 -0.000160 -0.000916 -0.004523 -0.017829 -0.056316 -0.139490 -0.173072  0.561138
                                 0.141660  0.462420  0.010925  0.007740  0.105765 -0.001085 -0.010966 -0.033284 -0.087023 -0.101385
                                -0.000873 -0.000442 -0.018729  0.004203 -0.000444  0.024774 -0.000928  0.000146 -0.000191  0.018266
                                -0.003505 -0.003079 -0.000391 -0.004883  0.000279

  18.1   2    -0.6621  -39.4289  0.000000  0.000000  0.000000  0.000001  0.000002  0.000004  0.000007  0.000012  0.000022  0.000038
                                 0.000066  0.000117  0.000210  0.000378  0.000684  0.001167  0.001834 -0.000143  0.001851 -0.001109
                                -0.008241 -0.015612 -0.000156  0.027813  0.030103  0.012648 -0.015770 -0.161370  0.213522 -0.255124
                                 0.302524 -0.216269  0.207777  0.006920  0.066050  0.039022 -0.008073 -0.000000 -0.000000 -0.000000
                                -0.000001 -0.000002 -0.000005 -0.000013 -0.000030 -0.000074 -0.000183 -0.000457 -0.001082 -0.002465
                                 0.000241 -0.004710 -0.005629 -0.002204  0.011729  0.025279  0.014148 -0.043192  0.051284 -0.207208
                                 0.304929 -0.341574  0.235554  0.025707  0.010311  0.082598  0.039746  0.051467  0.003534 -0.000002
                                 0.000000 -0.000009  0.000001 -0.000053  0.000006 -0.000246  0.000030 -0.000947  0.000116 -0.002983
                                 0.000362 -0.007650  0.000938 -0.015421  0.001868 -0.021919  0.002704 -0.016016  0.001864  0.022535
                                -0.002545  0.048124 -0.007383  0.071261 -0.000458 -0.045790 -0.007496  0.133413 -0.001178 -0.105573
                                 0.001221 -0.041154  0.014594 -0.143242  0.001250 -0.076257  0.021600 -0.141222  0.020144 -0.029523
                                 0.009322  0.008034  0.001150  0.000007  0.000000  0.000066  0.000001  0.000366  0.000007  0.001367
                                 0.000028  0.003583  0.000074  0.007257  0.000151  0.009287  0.000199  0.010009  0.000215  0.002232
                                -0.000147 -0.002614  0.000494  0.017434 -0.000933 -0.049009  0.000548  0.028284 -0.001539 -0.024128
                                 0.000332 -0.000207 -0.001506  0.000291 -0.000039  0.000425 -0.005755  0.000160 -0.000702 -0.003978
                                -0.000180  0.000707 -0.000035 -0.000199 -0.000985 -0.003873 -0.012373 -0.032416 -0.042633  0.119364
                                 0.044769  0.124815  0.006036  0.002797 -0.072244  0.007090  0.077918  0.259504  0.428047  0.288302
                                 0.007772  0.003323  0.032706 -0.012699 -0.000073 -0.044792 -0.000165 -0.000420 -0.000040 -0.022339
                                -0.000402  0.005701  0.001907  0.007949  0.000998

  19.1   2    -0.3699  -50.0594 -0.000000 -0.000000 -0.000001 -0.000001 -0.000003 -0.000005 -0.000010 -0.000018 -0.000032 -0.000056
                                -0.000098 -0.000173 -0.000309 -0.000558 -0.001004 -0.001735 -0.002599 -0.000016 -0.002507  0.001409
                                 0.012581  0.022018  0.003293 -0.058117 -0.004061 -0.057416  0.054550  0.161512  0.001483  0.019483
                                -0.216161  0.017765 -0.208727  0.146355  0.326504  0.106767 -0.001985  0.000000  0.000000  0.000000
                                 0.000000  0.000000  0.000001  0.000002  0.000005  0.000011  0.000028  0.000069  0.000165  0.000366
                                -0.000011  0.000685  0.000873  0.000300 -0.001710 -0.003965 -0.001800  0.005390  0.002965  0.011756
                                -0.017358  0.023740 -0.024738  0.001807 -0.029323  0.007697  0.012971  0.009006 -0.001781 -0.000001
                                 0.000003 -0.000005  0.000016 -0.000026  0.000092 -0.000118  0.000426 -0.000457  0.001653 -0.001427
                                 0.005158 -0.003696  0.013366 -0.007359  0.026598 -0.010661  0.038569 -0.007342  0.026493  0.009960
                                -0.035842  0.029354 -0.106267 -0.000034  0.000271  0.032833 -0.117434 -0.000347 -0.003225  0.000111
                                 0.005393 -0.061182  0.207612  0.008965 -0.000590 -0.103296  0.327814 -0.073043  0.295564 -0.044618
                                 0.170678 -0.013100  0.040455 -0.000001 -0.000001 -0.000008 -0.000006 -0.000043 -0.000034 -0.000164
                                -0.000118 -0.000427 -0.000329 -0.000882 -0.000620 -0.001104 -0.000889 -0.001291 -0.000735  0.000681
                                -0.000681 -0.002609  0.000906  0.004054 -0.000597 -0.001717  0.001357  0.001629  0.003148  0.004596
                                 0.001547  0.002346 -0.000689 -0.000268  0.000210  0.003515  0.000493  0.000452 -0.006300 -0.001353
                                -0.000396  0.009012  0.000005  0.000030  0.000147  0.000576  0.001869  0.005332  0.007232 -0.022058
                                -0.006774 -0.044824 -0.001781 -0.000739 -0.042952 -0.001179 -0.012854 -0.042622 -0.067395 -0.059447
                                -0.001210 -0.000532 -0.010717 -0.001359  0.002005 -0.002802  0.007545 -0.000069  0.000105  0.001203
                                 0.007655  0.000821 -0.001516  0.000305 -0.004455

  20.1   +    -0.3632  -42.1413  0.000000  0.000000  0.000001  0.000002  0.000004  0.000009  0.000016  0.000028  0.000050  0.000088
                                 0.000154  0.000272  0.000486  0.000878  0.001579  0.002729  0.004084  0.000034  0.003934 -0.002206
                                -0.019805 -0.034584 -0.005293  0.091936  0.004805  0.091865 -0.087210 -0.247980 -0.017704 -0.016376
                                 0.322378 -0.007081  0.328038 -0.240274 -0.556328 -0.181027  0.003692  0.000000  0.000000  0.000000
                                 0.000000  0.000000  0.000000  0.000000  0.000001  0.000002  0.000004  0.000009  0.000021  0.000054
                                -0.000021  0.000113  0.000099  0.000065 -0.000282 -0.000435 -0.000483  0.001595 -0.006505  0.013942
                                -0.018373  0.016652 -0.007342 -0.012293  0.029524 -0.020076  0.000687  0.006125  0.004799  0.000001
                                 0.000002  0.000007  0.000010  0.000042  0.000056  0.000193  0.000260  0.000749  0.001008  0.002341
                                 0.003145  0.006052  0.008148  0.012082  0.016220  0.017434  0.023508  0.012168  0.016179 -0.016571
                                -0.021871 -0.046041 -0.064557 -0.010885 -0.000884 -0.036414 -0.069867 -0.019380 -0.004056  0.015012
                                 0.004787  0.086033  0.125166  0.010828  0.001309  0.145512  0.196595  0.126357  0.185492  0.076356
                                 0.110574  0.023134  0.021898  0.000000 -0.000000  0.000004 -0.000001  0.000023 -0.000007  0.000090
                                -0.000021  0.000228 -0.000065  0.000494 -0.000108  0.000584 -0.000183  0.000806 -0.000081 -0.001331
                                -0.000378  0.004325  0.000996 -0.008768 -0.001206  0.009066  0.001129 -0.007974  0.000542 -0.002749
                                 0.000957 -0.005723 -0.001572  0.000447 -0.001095  0.001931 -0.000010  0.003266 -0.000619  0.001670
                                -0.003934  0.002325 -0.000008 -0.000045 -0.000224 -0.000873 -0.002854 -0.008382 -0.011349  0.034592
                                 0.009541  0.062557  0.003140  0.001318  0.061316  0.000925  0.009969  0.032903  0.049834  0.051636
                                 0.000881  0.000401  0.011756  0.003447  0.001598  0.010266  0.004887  0.000147  0.000063  0.002019
                                -0.001195 -0.002202 -0.000763 -0.001808  0.000374

  21.1   0     0.0237  -13.7084  0.000000  0.000000  0.000000  0.000000  0.000001  0.000001  0.000002  0.000004  0.000008  0.000014
                                 0.000024  0.000042  0.000078  0.000136  0.000256  0.000404  0.000837 -0.000411  0.001024 -0.000751
                                -0.002375 -0.007220  0.004416 -0.014032  0.068114 -0.049026  0.035122 -0.158769  0.450766 -0.505735
                                 0.409187 -0.711860  0.663757 -0.494800 -0.517636 -2.572870  2.064377 -0.000000 -0.000000 -0.000000
                                -0.000001 -0.000001 -0.000003 -0.000007 -0.000018 -0.000044 -0.000108 -0.000269 -0.000636 -0.001455
                                 0.000152 -0.002785 -0.003308 -0.001307  0.006922  0.014868  0.008371 -0.025408  0.027460 -0.115567
                                 0.167459 -0.191809  0.144506 -0.053912  0.226454 -0.159183 -0.279854 -0.814465 -0.476688  0.000001
                                 0.000000  0.000004  0.000000  0.000022  0.000002  0.000102  0.000007  0.000392  0.000029  0.001235
                                 0.000091  0.003162  0.000236  0.006385  0.000467  0.009054  0.000682  0.006632  0.000460 -0.009451
                                -0.000600 -0.020144 -0.002000 -0.027455  0.000750  0.014024 -0.003184 -0.046208  0.001127  0.035515
                                -0.000815  0.025822  0.003991  0.060230 -0.001357  0.031274  0.006603  0.026998  0.006480 -0.089380
                                 0.005114 -0.105736 -0.001820  0.000000 -0.000000  0.000008 -0.000000  0.000026 -0.000002  0.000151
                                -0.000010  0.000255 -0.000020  0.000859 -0.000056  0.000365 -0.000044  0.002393 -0.000117 -0.009240
                                 0.000258  0.024758 -0.000579 -0.041756  0.001305  0.050547 -0.001340 -0.055239  0.000964  0.018318
                                -0.000532 -0.053699  0.000599 -0.002865 -0.000178  0.000216  0.007850  0.000376  0.000095 -0.009225
                                -0.000529 -0.000108  0.000004  0.000024  0.000117  0.000486  0.001361  0.000828 -0.000501 -0.055610
                                -0.000177  0.342724  0.005159  0.001720  1.921613  0.000761  0.009467  0.035629  0.044335 -0.271654
                                 0.001328  0.000475 -0.419087  0.001031 -0.000182  0.028738 -0.001070  0.000156 -0.000007  0.078294
                                -0.001163 -0.001705  0.000369 -0.010493  0.001239

  22.1   0     0.0504  -15.8669  0.000000  0.000000  0.000000  0.000000  0.000000  0.000000  0.000001  0.000002  0.000003  0.000005
                                 0.000009  0.000016  0.000028  0.000050  0.000090  0.000157  0.000225  0.000022  0.000205 -0.000105
                                -0.001173 -0.001876 -0.000619  0.007069 -0.004187  0.009634 -0.008836 -0.002130 -0.059568  0.073084
                                -0.064520  0.256687 -0.246792  0.344471 -0.281076 -2.209452  1.591511  0.000000  0.000000  0.000000
                                 0.000001  0.000002  0.000005  0.000011  0.000026  0.000062  0.000158  0.000376  0.000962  0.001809
                                 0.000824  0.002848  0.005629  0.000517 -0.007347 -0.027068  0.001818 -0.009299  0.402228 -0.654724
                                 1.059613 -1.124031  0.549420 -0.688894  0.827136 -0.614492  0.678337 -0.927895  1.128492 -0.000000
                                -0.000000 -0.000002 -0.000000 -0.000015 -0.000002 -0.000064 -0.000008 -0.000273 -0.000031 -0.000771
                                -0.000095 -0.002233 -0.000247 -0.003862 -0.000491 -0.006896 -0.000714 -0.002156 -0.000488 -0.000377
                                 0.000650  0.050292  0.002004 -0.180863 -0.000254  0.295360  0.002555 -0.300309 -0.000417  0.227381
                                 0.000329 -0.179660 -0.003915  0.361027  0.000649 -0.382345 -0.006656  0.093071 -0.006219 -0.081953
                                -0.004919 -0.185267 -0.001091 -0.000001  0.000000 -0.000002  0.000001 -0.000033  0.000004 -0.000051
                                 0.000016 -0.000325  0.000038 -0.000190  0.000086 -0.001255  0.000099  0.001407  0.000132 -0.013375
                                -0.000038  0.035416  0.000035 -0.063190 -0.000623  0.075730  0.000550 -0.077126 -0.000326  0.076259
                                 0.000272 -0.034866 -0.001487  0.001338  0.000086 -0.000518 -0.002970 -0.000144  0.000919  0.003574
                                 0.000216 -0.000979  0.000004  0.000022  0.000113  0.000405  0.001601  0.008499  0.013038  0.000591
                                -0.010809 -0.209248 -0.009451 -0.003575  0.900045 -0.001238 -0.014283 -0.050621 -0.074773  0.145579
                                -0.001648 -0.000647 -0.635382 -0.001190 -0.000121 -0.005113  0.000101 -0.000099  0.000000 -0.087168
                                 0.003375  0.000861 -0.000606  0.001436 -0.001193

                                   1 2px     1 2px     1 2px     1 2px     1 2px     1 2px     1 2px     1 2px     1 2px     1 2px  
                                   1 2px     1 2px     1 2px     1 2px     1 2px     1 2px     1 2px     1 2px     1 2px     1 2px  
                                   1 2px     1 2px     1 2px     1 2px     1 2px     1 2px     1 2px     1 2px     1 2px     1 2px  
                                   1 2px     1 2px     1 3d1+    1 3d1+    1 3d1+    1 3d1+    1 3d1+    1 3d1+    1 3d1+    1 3d1+ 
                                   1 3d1+    1 3d1+    1 3d1+    1 3d1+    1 3d1+    1 3d1+    1 3d1+    1 3d1+    1 3d1+    1 3d1+ 
                                   1 3d1+    1 3d1+    1 3d1+    1 3d1+    1 4f1+    1 4f3+    1 4f1+    1 4f3+    1 4f1+    1 4f3+ 
                                   1 4f1+    1 4f3+    1 4f1+    1 4f3+    1 4f1+    1 4f3+    1 4f1+    1 4f3+    1 4f1+    1 4f3+ 
                                   1 4f1+    1 4f3+    1 4f1+    1 4f3+    1 4f1+    1 4f3+    1 4f1+    1 4f3+    1 4f1+    1 4f3+ 
                                   1 4f1+    1 4f3+    1 4f1+    1 4f3+    1 5g1+    1 5g3+    1 5g1+    1 5g3+    1 5g1+    1 5g3+ 
                                   2 2px     2 2px     2 2px     2 2px     2 2px     2 2px     2 2px     2 2px     2 3d1+    2 3d1+ 
                                   2 3d1+    2 3d1+    2 4f1+    2 4f3+    2 4f1+    2 4f3+ 

   1.2   2  -433.4857-1210.3976  0.000003  0.000008  0.000024  0.000062  0.000153  0.000367  0.000873  0.002085  0.005048  0.012348
                                 0.030033  0.070112  0.147676 -0.000313  0.257463  0.326975  0.249426  0.089031  0.009866  0.000452
                                -0.000268  0.000436 -0.000603  0.000419 -0.000283  0.000076 -0.000019  0.000014 -0.000004  0.000001
                                -0.000000  0.000000 -0.000000 -0.000000 -0.000000 -0.000000 -0.000000 -0.000001 -0.000002 -0.000001
                                -0.000000 -0.000001 -0.000000 -0.000001  0.000001 -0.000002  0.000001 -0.000000  0.000000 -0.000000
                                 0.000000 -0.000000  0.000000 -0.000000  0.000000  0.000000  0.000001  0.000001  0.000000  0.000001
                                 0.000000  0.000000  0.000001  0.000001  0.000000  0.000000  0.000000  0.000000 -0.000000 -0.000000
                                 0.000000  0.000000 -0.000000 -0.000001  0.000000  0.000000 -0.000000 -0.000000  0.000000  0.000000
                                -0.000000 -0.000000  0.000000  0.000000  0.000000 -0.000000 -0.000000 -0.000000  0.000000  0.000000
                                 0.000000  0.000000  0.000000  0.000000 -0.000000  0.000000 -0.000000  0.000000  0.000000  0.000000
                                 0.000000  0.000000 -0.000000  0.000000 -0.000000  0.000000

   2.2   2   -99.6456 -434.3965 -0.000001 -0.000004 -0.000012 -0.000032 -0.000079 -0.000189 -0.000450 -0.001078 -0.002625 -0.006472
                                -0.015961 -0.038049 -0.083084  0.000804 -0.151975 -0.196301 -0.091914  0.227199  0.497339  0.337474
                                 0.075590  0.016758 -0.015253  0.013945 -0.009943  0.002933 -0.001016  0.000705 -0.000263  0.000024
                                -0.000007  0.000001 -0.000000 -0.000000 -0.000000 -0.000000 -0.000001 -0.000003 -0.000007 -0.000015
                                -0.000024 -0.000048 -0.000026  0.000011 -0.000025  0.000023 -0.000012  0.000002 -0.000001 -0.000002
[...]
                                 0.022335 -0.000004 -0.017548 -0.000154  0.004047 -0.000266 -0.005208  0.000393  0.013131 -0.000463
                                 0.006443  0.069621  0.229722  0.372223  0.304242  0.006537  0.002893  0.021534 -0.009947 -0.038288
                                -0.000415 -0.039475  0.006250  0.000005  0.008906 -0.000071

  10.3   +    -0.4169  -49.8846  0.000000  0.000000  0.000000  0.000001  0.000002  0.000005  0.000011  0.000026  0.000064  0.000158
                                 0.000391  0.000938  0.002074 -0.000035  0.003860  0.004988  0.001664 -0.009656 -0.022751 -0.009745
                                 0.029067  0.039266  0.021573 -0.011798  0.031012 -0.079248 -0.079605 -0.042912  0.004758  0.091191
                                 0.081892 -0.003273 -0.000003 -0.000018 -0.000099 -0.000458 -0.001776 -0.005544 -0.014365 -0.028599
                                -0.041438 -0.028497  0.038730  0.114039  0.002124  0.122526  0.007408 -0.008682 -0.226346 -0.008123
                                -0.356866 -0.308797 -0.166640 -0.030427 -0.000004  0.000000 -0.000040  0.000001 -0.000230  0.000003
                                -0.000834  0.000013 -0.002246  0.000032 -0.004398  0.000069 -0.005935  0.000087 -0.005563  0.000094
                                -0.002915  0.000096  0.001743 -0.000136 -0.000899 -0.000126  0.009750 -0.000073  0.007371  0.000176
                                 0.023843  0.000612  0.010351  0.000511  0.001459 -0.001056 -0.001797  0.001229  0.002206 -0.002508
                                 0.004541  0.048916  0.162085  0.263061  0.267419  0.004387  0.001983  0.060732  0.003115  0.001278
                                 0.000128 -0.014675 -0.001580  0.000023  0.000526 -0.000066

  11.3   0     0.0499  -16.2851  0.000000  0.000000  0.000000  0.000001  0.000001  0.000003  0.000007  0.000018  0.000042  0.000110
                                 0.000252  0.000681  0.001095  0.001088  0.001367  0.004288 -0.000332 -0.003713 -0.021384  0.008235
                                -0.029464  0.497989 -0.861585  1.377632 -1.467936  0.747294 -0.816123  1.014176 -0.687549  0.403044
                                -0.223317  1.340566  0.000001  0.000003  0.000019  0.000086  0.000334  0.001045  0.002698  0.005393
                                 0.007766  0.005428 -0.007547 -0.020267 -0.007188 -0.012694 -0.012796  0.010648  0.037375  0.018453
                                 0.053602  0.066404  0.046669  0.071516  0.000002  0.000000  0.000017  0.000000  0.000111  0.000003
                                 0.000352  0.000007  0.001091  0.000025  0.001804  0.000038  0.003185  0.000081  0.001066  0.000007
                                 0.010437  0.000463 -0.024376 -0.001081  0.037790  0.001583 -0.044974 -0.001808  0.029947  0.001795
                                -0.032861 -0.000537  0.021824  0.001987 -0.000793  0.000146  0.001245 -0.000105 -0.001903  0.000353
                                -0.001799 -0.018357 -0.058172 -0.100266 -0.117675 -0.001265 -0.000669 -0.403090 -0.000433 -0.004953
                                -0.000066  0.030541  0.000034  0.000019 -0.001281 -0.000103

  12.3   0     0.1703  -19.5159 -0.000000 -0.000000 -0.000000 -0.000001 -0.000002 -0.000006 -0.000014 -0.000033 -0.000085 -0.000193
                                -0.000534 -0.001076 -0.003468  0.002996 -0.008239 -0.003948 -0.005999  0.019834  0.013177  0.051849
                                -0.167744  1.203235 -2.358581  3.703039 -4.001635  2.232571 -1.936996  2.825521 -1.766649  0.655447
                                -2.007476  1.297514 -0.000001 -0.000004 -0.000025 -0.000100 -0.000439 -0.001207 -0.003601 -0.006001
                                -0.011295 -0.002563 -0.002924  0.093480 -0.357296  0.574345 -0.585570  0.438878 -0.330922  0.654220
                                -0.673301  0.123338 -0.430516  0.641006 -0.000001 -0.000000 -0.000012 -0.000000 -0.000059 -0.000003
                                -0.000243 -0.000008 -0.000579 -0.000029 -0.001315 -0.000042 -0.001387 -0.000099 -0.002280  0.000008
                                 0.003672 -0.000692 -0.010421  0.001632  0.017303 -0.002288 -0.014431  0.002608  0.014572 -0.002701
                                -0.009503  0.000330 -0.067247 -0.003423 -0.002866 -0.000116  0.006700 -0.000014 -0.006382 -0.000298
                                 0.000708  0.010407  0.042351  0.047904  0.284354  0.001921  0.000611  0.041617  0.002295  0.014588
                                 0.000182 -0.110522 -0.001217 -0.000033  0.011637  0.000153

                                   1 3d2-    1 3d2-    1 3d2-    1 3d2-    1 3d2-    1 3d2-    1 3d2-    1 3d2-    1 3d2-    1 3d2- 
                                   1 3d2-    1 3d2-    1 3d2-    1 3d2-    1 3d2-    1 3d2-    1 3d2-    1 3d2-    1 3d2-    1 3d2- 
                                   1 3d2-    1 3d2-    1 4f2-    1 4f2-    1 4f2-    1 4f2-    1 4f2-    1 4f2-    1 4f2-    1 4f2- 
                                   1 4f2-    1 4f2-    1 4f2-    1 4f2-    1 4f2-    1 4f2-    1 4f2-    1 5g2-    1 5g4-    1 5g2- 
                                   1 5g4-    1 5g2-    1 5g4-    2 3d2-    2 3d2-    2 3d2-    2 3d2-    2 4f2-    2 4f2- 

   1.4   2   -77.9335 -399.5918  0.000023  0.000139  0.000775  0.003570  0.013712  0.042423  0.107388  0.212869  0.316987  0.314262
                                 0.165421  0.039804 -0.003007  0.006371 -0.001654  0.001198 -0.000146  0.000208 -0.000131  0.000010
                                -0.000004  0.000001 -0.000000 -0.000000  0.000001  0.000003 -0.000005  0.000000  0.000002 -0.000003
                                 0.000002 -0.000004  0.000003 -0.000002  0.000001  0.000000  0.000000  0.000001  0.000000 -0.000002
                                -0.000000  0.000001  0.000000  0.000000  0.000000  0.000000  0.000000 -0.000000  0.000000

   2.4   2   -12.1411 -166.9367 -0.000011 -0.000071 -0.000396 -0.001829 -0.007082 -0.022100 -0.056984 -0.113586 -0.164741 -0.123700
                                 0.108833  0.363941  0.028493  0.382569  0.028694  0.197881  0.045512 -0.007008  0.006338 -0.000196
                                 0.000107 -0.000016  0.000000 -0.000000 -0.000001 -0.000003 -0.000003 -0.000005 -0.000008 -0.000051
                                 0.000031  0.000027  0.000022 -0.000006 -0.000011  0.000004  0.000002  0.000393  0.000000 -0.000353
                                -0.000000  0.000147  0.000000  0.000001 -0.000009 -0.000000 -0.000013 -0.000001  0.000016

   3.4   2    -3.0884 -140.0310  0.000000  0.000000  0.000000  0.000000  0.000000  0.000001  0.000003  0.000006  0.000009  0.000001
                                -0.000000 -0.000039  0.000189 -0.000327  0.000211 -0.000170  0.000423 -0.000471  0.000402 -0.000392
                                -0.000058 -0.000007  0.000217  0.002021  0.011518  0.041979  0.112573  0.222620  0.305279  0.311399
                                 0.222667  0.006290  0.095950  0.003937  0.018661 -0.000875  0.000801  0.000506 -0.000000 -0.000491
                                 0.000000  0.000125 -0.000000  0.000095  0.000392  0.000005 -0.000118 -0.000187 -0.000100

   4.4   +    -0.5469  -57.1951  0.000003  0.000020  0.000115  0.000529  0.002054  0.006410  0.016611  0.033058  0.047929  0.032927
                                -0.044520 -0.132419  0.001752 -0.147783 -0.001584  0.003739  0.261028  0.000952  0.414775  0.348807
                                 0.154767  0.018539  0.000000  0.000002  0.000011  0.000043  0.000103  0.000222  0.000230  0.000373
                                -0.000550  0.002188 -0.001908  0.001295 -0.002457 -0.005721 -0.008944  0.003316  0.000001 -0.005217
                                -0.000001  0.008017  0.000002  0.002175  0.007498  0.000099  0.005102 -0.001514 -0.002791

   5.4   0     0.1943  -16.3636 -0.000001 -0.000003 -0.000026 -0.000087 -0.000458 -0.001030 -0.003824 -0.004765 -0.013245  0.003571
                                -0.020576  0.188557 -0.872338  1.358538 -1.430513  1.073557 -0.727408  1.597949 -1.514009  0.436904
                                -0.651800  1.320245 -0.000000  0.000004  0.000002  0.000081  0.000015  0.000511 -0.000378  0.002372
                                -0.012815  0.032909 -0.054278  0.058499 -0.051504  0.036242 -0.025569 -0.000181 -0.000000  0.000036
                                -0.000000 -0.000719 -0.000000 -0.000032  0.009530  0.000084 -0.008579  0.000732 -0.000254

   6.4   0     0.5528  -22.7862  0.000000  0.000001  0.000002  0.000014  0.000030  0.000168  0.000221  0.000972  0.000225  0.002516
                                -0.006400  0.027837 -0.164005  0.247551 -0.270693  0.204271 -0.123912  0.313831 -0.273727  0.112835
                                -0.193686  0.053690  0.000000 -0.000176 -0.000235 -0.003312 -0.002130 -0.020303  0.008815 -0.084222
                                 0.438297 -1.143645  1.903528 -2.092382  1.935308 -1.432155  1.332360 -0.004755 -0.000000  0.011195
                                 0.000000 -0.008912 -0.000000  0.015045  0.009103  0.000310  0.172870 -0.000225 -0.016785

 HOMO     20.1    -0.337782 =      -9.1915eV
 LUMO     21.1     0.012135 =       0.3302eV
 LUMO-HOMO         0.349917 =       9.5217eV


 **********************************************************************************************************************************
 DATASETS  * FILE   NREC   LENGTH (MB)   RECORD NAMES
              1      22       23.93       500      610      700      900      950      970     1000      129      960     1700   
                                          VAR    BASINP    GEOM    SYMINP    ZMAT    AOBASIS   BASIS     P2S    ABASIS    OPER   
                                         1101     1401     1411     1412     1650     1100     1400     1410     1200     1210   
                                          SR      EKINR    POTR     PVPR    MOLCAS      S      EKIN      POT      H0       H01  
                                         1080     1600   
                                         AOSYM     SMH  

              2       5        9.37       700     1000      520     2100     2101   
                                         GEOM     BASIS   MCVARS     RHF      RHF  

 PROGRAMS   *        TOTAL       RHF       RHF       INT
 CPU TIMES  *       213.28      8.50     34.40    170.19
 REAL TIME  *       227.45 SEC
 DISK USED  *        11.34 GB      
 SF USED    *         0.24 MB      
 GA USED    *         0.00 MB       (max)       0.00 MB       (current)
 **********************************************************************************************************************************
 SETTING SCF(1)         =    -17901.76481145  AU                              
 SETTING _CC_NORM_MAX   =         2.00000000                                  


 PROGRAM * CCSD (Restricted open-shell coupled cluster)     Authors: C. Hampel, H.-J. Werner, 1991, M. Deegan, P.J. Knowles, 1992


 Convergence thresholds:  THRVAR = 1.00D-08  THRDEN = 1.70D-06

 CCSD(T)     terms to be evaluated (factor= 1.000)


 Number of closed-shell orbitals:  41 (  20   9   9   3 )
 Number of active  orbitals:        3 (   0   1   1   1 )
 Number of external orbitals:     402 ( 165  96  96  45 )

 For full I/O caching in triples, increase memory by 261.06 Mwords to 1285.34 Mwords.

 Number of N-1 electron functions:              85
 Number of N-2 electron functions:            3570
 Number of singly external CSFs:             10608
 Number of doubly external CSFs:         112813020
 Total number of CSFs:                   112823628

 Molecular orbitals read from record     2101.2  Type=RHF/CANONICAL (state 1.1)

 Integral transformation finished. Total CPU:  52.40 sec, npass=  1  Memory used: 140.45 MW

 Starting RMP2 calculation

 Wavefunction is spin-projected

 ITER.      SQ.NORM     CORR.ENERGY   TOTAL ENERGY   ENERGY CHANGE        DEN1      VAR(S)    VAR(P)  DIIS     TIME
   1      1.28429244    -3.73637290-17905.50118435    -3.73637290    -0.00235961  0.27D-04  0.11D-02  1  1    69.95
   2      1.28711754    -3.73888392-17905.50369537    -0.00251102    -0.00001320  0.26D-06  0.94D-05  2  2    86.51
   3      1.28734997    -3.73900896-17905.50382041    -0.00012504    -0.00000010  0.40D-08  0.75D-07  3  3   104.57
   4      1.28735827    -3.73901017-17905.50382163    -0.00000121    -0.00000000  0.58D-10  0.45D-09  4  4   126.39

 Norm of t1 vector:      0.06293884      S-energy:    -0.00928991      T1 diagnostic:  0.00020219
 Norm of t2 vector:      0.53235042      P-energy:    -3.72972026
                                         Alpha-Beta:  -2.41193850
                                         Alpha-Alpha: -0.67970847
                                         Beta-Beta:   -0.63807330

 Spin contamination <S**2-Sz**2-Sz>     0.00000000
  Reference energy                   -17901.7648114518    
  RHF-RMP2 correlation energy          -3.739010174400
 !RHF-RMP2 energy                    -17905.5038216262    
 (NB above energy spin projected)

 Starting RCCSD calculation

 ITER.      SQ.NORM     CORR.ENERGY   TOTAL ENERGY   ENERGY CHANGE        DEN1      VAR(S)    VAR(P)  DIIS     TIME
   1      1.20503239    -3.30564527-17905.07045672    -3.30564527    -0.15193786  0.15D-01  0.15D-01  0  0   467.41
   2      1.23776530    -3.44535870-17905.21017016    -0.13971344    -0.01950353  0.15D-02  0.34D-02  0  0   811.18
   3      1.23534624    -3.40126415-17905.16607560     0.04409456    -0.00411054  0.16D-02  0.55D-03  1  1  1164.48
   4      1.23971338    -3.41472142-17905.17953287    -0.01345728    -0.00017533  0.72D-04  0.44D-04  2  2  1492.47
   5      1.24215383    -3.41537344-17905.18018489    -0.00065202    -0.00006284  0.50D-04  0.96D-05  3  3  1817.58
   6      1.24509632    -3.41624647-17905.18105792    -0.00087303    -0.00000403  0.26D-05  0.69D-06  4  4  2144.20
   7      1.24551634    -3.41629273-17905.18110419    -0.00004626    -0.00000121  0.80D-06  0.23D-06  5  5  2487.10
   8      1.24566204    -3.41627800-17905.18108946     0.00001473    -0.00000013  0.88D-07  0.22D-07  6  6  2822.45
   9      1.24567453    -3.41627888-17905.18109033    -0.00000087    -0.00000003  0.23D-07  0.55D-08  6  1  3147.19
  10      1.24567432    -3.41628421-17905.18109566    -0.00000533    -0.00000000  0.28D-08  0.72D-09  6  2  3498.85
  11      1.24567190    -3.41628296-17905.18109441     0.00000125    -0.00000000  0.69D-09  0.18D-09  6  4  3833.47

 Norm of t1 vector:      0.15543479      S-energy:    -0.00871523      T1 diagnostic:  0.01087847
                                                                       D1 diagnostic:  0.04842760
 Norm of t2 vector:      0.47065054      P-energy:    -3.40756773
                                         Alpha-Beta:  -2.26540270
                                         Alpha-Alpha: -0.58951647
                                         Beta-Beta:   -0.55264856

 Singles amplitudes (print threshold =  0.500E-01):

         I         SYM. A    A   T(IA) [Beta-Beta]

        29         2         1     -0.06823973
        39         3         1     -0.06801284

 Doubles amplitudes (print threshold =  0.500E-01):

         I         J         SYM. A    SYM. B    A         B      T(IJ, AB) [Beta-Beta]

        39        29         2         3         1         1      0.05192933
        39        29         3         2         1         1     -0.05192933

 Spin contamination <S**2-Sz**2-Sz>     0.00000000

 For full I/O caching in triples, increase memory by 429.19 Mwords to 1453.47 Mwords.
 

  Correlated core orbitals:             1.1       2.1       3.1       4.1       5.1       6.1       7.1       8.1       9.1      10.1
                                       11.1      12.1      13.1      14.1      15.1      16.1       1.2       2.2       3.2       4.2
                                        5.2       6.2       7.2       8.2       1.3       2.3       3.3       4.3       5.3       6.3
                                        7.3       8.3       1.4       2.4       3.4
  Orbital energies:                 -2813.2561 -497.5614 -433.6021 -118.8480  -99.7602  -77.9395  -77.9385  -26.6990  -20.6354  -20.3096
                                      -12.1547  -12.1526   -4.3692   -3.1009   -3.0959   -2.6635 -433.6023  -99.7570  -77.9443  -20.3020
                                      -12.1657   -3.1013   -3.0910   -2.6164 -433.6023  -99.7570  -77.9443  -20.3020  -12.1657   -3.1013
                                       -3.0910   -2.6164  -77.9432  -12.1619   -3.1038
 
  RCCSD core-core energy               -2.546544258597
  RCCSD core-valence energy            -0.352895675693
  RCCSD valence correlation energy     -0.516843020760
 

 RESULTS
 =======

  Reference energy                   -17901.7648114518    
  RCCSD singles energy                 -0.008715226415
  RCCSD pair energy                    -3.407567728634
  RCCSD correlation energy             -3.416282955050
  Triples (T) contribution             -0.062884357767
  Total correlation energy             -3.479167312816
 
  RHF-RCCSD energy                   -17905.1810944068    
  RHF-RCCSD[T] energy                -17905.2489539447    
  RHF-RCCSD-T energy                 -17905.2433238416    
 !RHF-RCCSD(T) energy                -17905.2439787646    

 Program statistics:

 Available memory in ccsd:              1023983972
 Min. memory needed in ccsd:             308465420
 Max. memory used in ccsd:               456076551
 Max. memory used in cckext:             376073888 (11 integral passes)
 Max. memory used in cckint:             140449433 ( 1 integral passes)



 **********************************************************************************************************************************
 DATASETS  * FILE   NREC   LENGTH (MB)   RECORD NAMES
              1      22       23.93       500      610      700      900      950      970     1000      129      960     1700   
                                          VAR    BASINP    GEOM    SYMINP    ZMAT    AOBASIS   BASIS     P2S    ABASIS    OPER   
                                         1101     1401     1411     1412     1650     1100     1400     1410     1200     1210   
                                          SR      EKINR    POTR     PVPR    MOLCAS      S      EKIN      POT      H0       H01  
                                         1080     1600   
                                         AOSYM     SMH  

              2       5        9.37       700     1000      520     2100     2101   
                                         GEOM     BASIS   MCVARS     RHF      RHF  

 PROGRAMS   *        TOTAL  RCCSD(T)       RHF       RHF       INT
 CPU TIMES  *     13204.71  12991.37      8.50     34.40    170.19
 REAL TIME  *     15476.75 SEC
 DISK USED  *       169.60 GB      
 SF USED    *        30.11 GB      
 GA USED    *         0.00 MB       (max)       0.00 MB       (current)
 **********************************************************************************************************************************
 SETTING CCSD(1)        =    -17905.24397876  AU                              
 Output type csv         
                                                                                                                                                                                                                                                                

     Z,SCF  ,CCSD
   1.5,   -17901.76481,   -17905.24398
                                                  

 RCCSD(T)/USERDEF energy= -17905.243978764578

        RCCSD(T)        RHF-SCF         RHF-SCF 
 -17905.24397876 -17901.76481145 -17901.56167118
 **********************************************************************************************************************************
 Molpro calculation terminated
 Variable memory released
