
 Primary working directories    : /global/cscratch1/sd/bkincaid
 Secondary working directories  : /global/cscratch1/sd/bkincaid
 Wavefunction directory         : /global/homes/b/bkincaid/wfu/
 Main file repository           : /global/cscratch1/sd/bkincaid/

 SHA1      : 19cd028119e0e09f93f0674bd8af7968d9b3eff6
 NAME      : 2015.1.36
 ARCHNAME  : linux/x86_64
 FC        : /opt/cray/pe/craype/2.5.14/bin/ftn
 BLASLIB   : -L/opt/intel/compilers_and_libraries_2018.1.163/linux/mkl/lib/intel64 -Wl,-_start-group -lmkl_intel_ilp64 -lmkl_intel_thread -lmkl_core -Wl,-_end-group -liomp5
 id        : lbl

 Nodes     nprocs
 nid01865    11
 Number of processes for MPI-2 version of Molpro:   nprocs(total)=   12   nprocs(compute)=   11   nprocs(helper)=    1

 Using customized tuning parameters: mindgm=7; mindgv=16; mindgc=1; mindgr=1; noblas=0; minvec=7
 default implementation of scratch files=sf  

 ***,Calculation for IrO groundstate
 memory,1024,m
 gthresh,twoint=1.0E-15
 gthresh,throvl=1.0E-15
 
 set,dkroll=1,dkho=10,dkhp=4
 
 basis={
 Including file /global/u1/b/bkincaid/molpro/Ir/molecules/tz/IrO/ae/1.300/tz.basis
 Including file /global/u1/b/bkincaid/molpro/Ir/molecules/tz/IrO/ae/1.300/O-aug-cc-CVTZ.basis
 }
 
 ne = 85
 
 A1=20
 B1=10
 B2=10
 A2=4
 
 do i=1,1
 z(i) = 1.300 - 0.1*(i-1)
 geometry={
 2
 IrO
 Ir 0.0 0.0 0.0
 O 0.0 0.0 z(i)
 }
         {rhf
         wf,nelec=ne-3,spin=0,sym=1
                 occ,A1,B1-1,B2-1,A2-1
                 closed,A1,B1-1,B2-1,A2-1
         print,orbitals=2
         }
 {rhf,nitord=20
 wf,nelec=ne,spin=3,sym=1
         occ,A1,B1,B2,A2
         closed,A1,B1-1,B2-1,A2-1
 }
 scf(i)=energy
 _CC_NORM_MAX=2.0
 {rccsd(t);maxit,100;core}
 ccsd(i)=energy
 enddo
 
 table,z,scf,ccsd
 save
 type,csv
 

 Variables initialized (889), CPU time= 0.00 sec
 Commands  initialized (702), CPU time= 0.01 sec, 572 directives.
 Default parameters read. Elapsed time= 0.15 sec

 Checking input...
 Passed
1


                                         ***  PROGRAM SYSTEM MOLPRO  ***
                                       Copyright, TTI GmbH Stuttgart, 2015
                                    Version 2015.1 linked Dec 29 2018 15:55:43


 **********************************************************************************************************************************
 LABEL *   Calculation for IrO groundstate                                               
  64 bit mpp version                                                                     DATE: 12-Jun-21          TIME: 21:19:32  
 **********************************************************************************************************************************

 SHA1:             19cd028119e0e09f93f0674bd8af7968d9b3eff6
 **********************************************************************************************************************************

 THRESHOLDS:

 ZERO    =  1.00D-12  ONEINT  =  1.00D-12  TWOINT  =  1.00D-15  PREFAC  =  1.00D-14  LOCALI  =  1.00D-09  EORDER  =  1.00D-04
 ENERGY  =  0.00D+00  ETEST   =  0.00D+00  EDENS   =  0.00D+00  THRDEDEF=  1.00D-06  GRADIENT=  1.00D-02  STEP    =  1.00D-03
 ORBITAL =  1.00D-05  CIVEC   =  1.00D-05  COEFF   =  1.00D-04  PRINTCI =  5.00D-02  PUNCHCI =  9.90D+01  OPTGRAD =  3.00D-04
 OPTENERG=  1.00D-06  OPTSTEP =  3.00D-04  THRGRAD =  1.00D-10  COMPRESS=  1.00D-11  VARMIN  =  1.00D-07  VARMAX  =  1.00D-03
 THRDOUB =  0.00D+00  THRDIV  =  1.00D-05  THRRED  =  1.00D-07  THRPSP  =  1.00D+00  THRDC   =  1.00D-10  THRCS   =  1.00D-10
 THRNRM  =  1.00D-08  THREQ   =  0.00D+00  THRDE   =  1.00D+00  THRREF  =  1.00D-05  SPARFAC =  1.00D+00  THRDLP  =  1.00D-07
 THRDIA  =  1.00D-10  THRDLS  =  1.00D-07  THRGPS  =  0.00D+00  THRKEX  =  0.00D+00  THRDIS  =  2.00D-01  THRVAR  =  1.00D-10
 THRLOC  =  1.00D-06  THRGAP  =  1.00D-06  THRLOCT = -1.00D+00  THRGAPT = -1.00D+00  THRORB  =  1.00D-06  THRMLTP =  0.00D+00
 THRCPQCI=  1.00D-10  KEXTA   =  0.00D+00  THRCOARS=  0.00D+00  SYMTOL  =  1.00D-06  GRADTOL =  1.00D-06  THROVL  =  1.00D-08
 THRORTH =  1.00D-08  GRID    =  1.00D-06  GRIDMAX =  1.00D-03  DTMAX   =  0.00D+00  THROCCDE=  1.00D-01  THROCCDE=  1.00D-01



 THRESHOLDS:

 ZERO    =  1.00D-12  ONEINT  =  1.00D-12  TWOINT  =  1.00D-15  PREFAC  =  1.00D-14  LOCALI  =  1.00D-09  EORDER  =  1.00D-04
 ENERGY  =  0.00D+00  ETEST   =  0.00D+00  EDENS   =  0.00D+00  THRDEDEF=  1.00D-06  GRADIENT=  1.00D-02  STEP    =  1.00D-03
 ORBITAL =  1.00D-05  CIVEC   =  1.00D-05  COEFF   =  1.00D-04  PRINTCI =  5.00D-02  PUNCHCI =  9.90D+01  OPTGRAD =  3.00D-04
 OPTENERG=  1.00D-06  OPTSTEP =  3.00D-04  THRGRAD =  1.00D-10  COMPRESS=  1.00D-11  VARMIN  =  1.00D-07  VARMAX  =  1.00D-03
 THRDOUB =  0.00D+00  THRDIV  =  1.00D-05  THRRED  =  1.00D-07  THRPSP  =  1.00D+00  THRDC   =  1.00D-10  THRCS   =  1.00D-10
 THRNRM  =  1.00D-08  THREQ   =  0.00D+00  THRDE   =  1.00D+00  THRREF  =  1.00D-05  SPARFAC =  1.00D+00  THRDLP  =  1.00D-07
 THRDIA  =  1.00D-10  THRDLS  =  1.00D-07  THRGPS  =  0.00D+00  THRKEX  =  0.00D+00  THRDIS  =  2.00D-01  THRVAR  =  1.00D-10
 THRLOC  =  1.00D-06  THRGAP  =  1.00D-06  THRLOCT = -1.00D+00  THRGAPT = -1.00D+00  THRORB  =  1.00D-06  THRMLTP =  0.00D+00
 THRCPQCI=  1.00D-10  KEXTA   =  0.00D+00  THRCOARS=  0.00D+00  SYMTOL  =  1.00D-06  GRADTOL =  1.00D-06  THROVL  =  1.00D-15
 THRORTH =  1.00D-08  GRID    =  1.00D-06  GRIDMAX =  1.00D-03  DTMAX   =  0.00D+00  THROCCDE=  1.00D-01  THROCCDE=  1.00D-01


 SETTING DKROLL         =         1.00000000                                  
 SETTING DKHO           =        10.00000000                                  
 SETTING DKHP           =         4.00000000                                  

 Variable memory set to 1024000000 words,  buffer space   230000 words

 SETTING BASIS          =    USERDEF
 SETTING NE             =        85.00000000                                  
 SETTING A1             =        20.00000000                                  
 SETTING B1             =        10.00000000                                  
 SETTING B2             =        10.00000000                                  
 SETTING A2             =         4.00000000                                  

 DO I                   =         1.00000000   
 SETTING Z(1)           =         1.30000000                                  

Geometry recognized as XYZ



 Recomputing integrals since basis changed


 Using spherical harmonics



 PROGRAM * SEWARD (Integral evaluation for generally contracted gaussian basis sets)     Author: Roland Lindh, 1990

 Geometry written to block  1 of record 700


 Point group  C2v 



 ATOMIC COORDINATES

 NR  ATOM    CHARGE       X              Y              Z

   1  IR     77.00    0.000000000    0.000000000    0.000000000
   2  O       8.00    0.000000000    0.000000000    2.456643962

 Bond lengths in Bohr (Angstrom)

 1-2  2.456643962
     ( 1.300000000)

 NUCLEAR CHARGE:                   85
 NUMBER OF PRIMITIVE AOS:         541
 NUMBER OF SYMMETRY AOS:          446
 NUMBER OF CONTRACTIONS:          446   ( 185A1  + 106B1  + 106B2  +  49A2  )
 NUMBER OF CORE ORBITALS:          35   (  16A1  +   8B1  +   8B2  +   3A2  )
 NUMBER OF VALENCE ORBITALS:       10   (   5A1  +   2B1  +   2B2  +   1A2  )


 NUCLEAR REPULSION ENERGY  250.74858610

 One-electron integrals computed with SEWARD

 10nd-order Douglas-Kroll-Hess method activated. McWeeny DKH parametrization is used.

 Computing Douglas-Kroll / X2C integrals

 AO integral compression algorithm  1   Integral accuracy      1.0D-15

     4859.888 MB (compressed) written to integral file ( 41.5%)

     Node minimum: 252.445 MB, node maximum: 838.337 MB


 NUMBER OF SORTED TWO-ELECTRON INTEGRALS:  115711532.     BUFFER LENGTH:  32768
 NUMBER OF SEGMENTS:   4  SEGMENT LENGTH:   31989761      RECORD LENGTH: 524288

 Memory used in sort:      32.55 MW

 SORT1 READ  1465035727. AND WROTE    48292792. INTEGRALS IN    140 RECORDS. CPU TIME:    27.94 SEC, REAL TIME:    38.24 SEC
 SORT2 READ   528156396. AND WROTE  1273302750. INTEGRALS IN  22990 RECORDS. CPU TIME:     1.82 SEC, REAL TIME:     2.93 SEC

 Node minimum:   115641882.  Node maximum:   115920125. integrals

 OPERATOR DM      FOR CENTER  0  COORDINATES:    0.000000    0.000000    0.000000

 EXTRA SYMMETRY OF AOS IN SYMMETRY 1:   1 1 1 1 1 1 1 1 1 1   1 1 1 1 1 1 1 1 1 1   1 1 1 1 1 1 1 1 1 1   1 1 1 1 1 1 1 1 1 1
                                        1 1 1 1 1 1 1 1 1 1   1 1 1 1 1 1 1 1 1 1   1 1 1 1 1 1 1 1 1 1   1 1 1 1 1 1 1 1 1 1
                                        1 1 1 1 1 1 1 1 1 1   1 1 1 1 1 1 1 1 1 1   1 1 1 1 1 1 1 1 1 1   1 1 1 1 1 1 1 1 1 1
                                        1 1 1 1 1 1 1 1 1 1   1 1 1 1 1 1 1 1 1 1   1 1 1 1 2 1 1 2 1 1   2 1 1 1 1 1 1 1 1 1
                                        1 1 1 1 1 1 1 1 1 1   1 1 1 1 1 1 1 1 1 1   1 1 1 1 1
 EXTRA SYMMETRY OF AOS IN SYMMETRY 2:   1 1 1 1 1 1 1 1 1 1   1 1 1 1 1 1 1 1 1 1   1 1 1 1 1 1 1 1 1 1   1 1 1 1 1 1 1 1 1 1
                                        1 1 1 1 1 1 1 1 1 1   1 1 1 1 1 2 1 2 1 2   1 2 1 2 1 2 1 2 1 2   1 2 1 2 1 2 1 2 1 2
                                        1 2 1 2 1 2 1 2 1 2   1 1 1 1 1 1 1 1 1 1   1 1 1 2 1 2
 EXTRA SYMMETRY OF AOS IN SYMMETRY 3:   1 1 1 1 1 1 1 1 1 1   1 1 1 1 1 1 1 1 1 1   1 1 1 1 1 1 1 1 1 1   1 1 1 1 1 1 1 1 1 1
                                        1 1 1 1 1 1 1 1 1 1   1 1 1 1 1 2 1 2 1 2   1 2 1 2 1 2 1 2 1 2   1 2 1 2 1 2 1 2 1 2
                                        1 2 1 2 1 2 1 2 1 2   1 1 1 1 1 1 1 1 1 1   1 1 1 2 1 2
 EXTRA SYMMETRY OF AOS IN SYMMETRY 4:   1 1 1 1 1 1 1 1 1 1   1 1 1 1 1 1 1 1 1 1   1 1 1 1 1 1 1 1 1 1   1 1 1 1 1 1 1 1 2 1
                                        2 1 2 1 1 1 1 1 1

 Eigenvalues of metric

         1 0.151E-06 0.344E-06 0.740E-06 0.805E-06 0.134E-05 0.412E-05 0.506E-05 0.997E-05
         2 0.171E-06 0.791E-06 0.509E-05 0.116E-04 0.255E-04 0.488E-04 0.547E-04 0.552E-04
         3 0.171E-06 0.791E-06 0.509E-05 0.116E-04 0.255E-04 0.488E-04 0.547E-04 0.552E-04
         4 0.805E-06 0.267E-04 0.544E-04 0.165E-03 0.628E-03 0.984E-03 0.214E-02 0.553E-02


 **********************************************************************************************************************************
 DATASETS  * FILE   NREC   LENGTH (MB)   RECORD NAMES
              1      22       23.93       500      610      700      900      950      970     1000      129      960     1700   
                                          VAR    BASINP    GEOM    SYMINP    ZMAT    AOBASIS   BASIS     P2S    ABASIS    OPER   
                                         1101     1401     1411     1412     1650     1100     1400     1410     1200     1210   
                                          SR      EKINR    POTR     PVPR    MOLCAS      S      EKIN      POT      H0       H01  
                                         1080     1600   
                                         AOSYM     SMH  

 PROGRAMS   *        TOTAL       INT
 CPU TIMES  *       188.72    188.04
 REAL TIME  *       206.03 SEC
 DISK USED  *        11.25 GB      
 GA USED    *         0.00 MB       (max)       0.00 MB       (current)
 **********************************************************************************************************************************


 PROGRAM * RHF-SCF (CLOSED SHELL)       Authors: W. Meyer, H.-J. Werner


 NUMBER OF ELECTRONS:      41+   41-    SPACE SYMMETRY=1    SPIN SYMMETRY: Singlet 
 CONVERGENCE THRESHOLDS:    1.00E-05 (Density)    1.70E-07 (Energy)
 MAX. NUMBER OF ITERATIONS:       60
 INTERPOLATION TYPE:            DIIS
 INTERPOLATION STEPS:              2 (START)      1 (STEP)
 LEVEL SHIFTS:                  0.00 (CLOSED)  0.00 (OPEN) 

 Number of closed-shell orbitals:   41 (  20   9   9   3 )


 Orbital guess generated from atomic densities. Full valence occupancy:   21  10  10   4

 Molecular orbital dump at record        2100.2

 ITERATION    DDIFF          GRAD             ENERGY        2-EL.EN.            DIPOLE MOMENTS         DIIS   ORB.
    1      0.000D+00      0.000D+00    -17890.21982644  13110.822578    0.00000    0.00000   -4.46355    0    start
    2      0.000D+00      0.327D-01    -17894.63077678  13966.363860    0.00000    0.00000    6.96943    1    diag
    3      0.298D+01      0.548D-01    -17899.04191102  13684.250476    0.00000    0.00000    0.61617    2    diag
    4      0.141D+00      0.117D-01    -17899.31137393  13629.804070    0.00000    0.00000    1.43486    3    diag
    5      0.575D-01      0.522D-02    -17899.38654808  13600.491280    0.00000    0.00000    0.28282    4    diag
    6      0.106D-01      0.129D-02    -17899.39076848  13599.528313    0.00000    0.00000    0.52831    5    diag
    7      0.216D-02      0.361D-03    -17899.39145438  13597.269290    0.00000    0.00000    0.47510    6    diag
    8      0.601D-03      0.131D-03    -17899.39157983  13597.296787    0.00000    0.00000    0.49129    7    diag
    9      0.176D-03      0.656D-04    -17899.39163070  13597.336190    0.00000    0.00000    0.50141    8    diag
   10      0.170D-03      0.150D-04    -17899.39163379  13597.336512    0.00000    0.00000    0.50566    9    orth
   11      0.515D-04      0.389D-05    -17899.39163394  13597.310529    0.00000    0.00000    0.50531    9    diag
   12      0.942D-05      0.103D-05    -17899.39163395  13597.306876    0.00000    0.00000    0.50543    0    orth

 Final occupancy:  20   9   9   3

 !RHF STATE 1.1 Energy               -17899.3916339451    
 Nuclear energy                       250.74858610
 One-electron energy               -24948.79365820
 Two-electron energy                 6798.65343816
 Virial quotient                       -0.67983851
 !RHF STATE 1.1 Dipole moment           0.00000000     0.00000000     0.50542900
 Dipole moment /Debye                   0.00000000     0.00000000     1.28458823

 ELECTRON ORBITALS
 =================


   Orb  Occ    Energy  Couls-En    Coefficients

                                   1 1s      1 1s      1 1s      1 1s      1 1s      1 1s      1 1s      1 1s      1 1s      1 1s   
                                   1 1s      1 1s      1 1s      1 1s      1 1s      1 1s      1 1s      1 1s      1 1s      1 1s   
                                   1 1s      1 1s      1 1s      1 1s      1 1s      1 1s      1 1s      1 1s      1 1s      1 1s   
                                   1 1s      1 1s      1 1s      1 1s      1 1s      1 1s      1 1s      1 2pz     1 2pz     1 2pz  
                                   1 2pz     1 2pz     1 2pz     1 2pz     1 2pz     1 2pz     1 2pz     1 2pz     1 2pz     1 2pz  
                                   1 2pz     1 2pz     1 2pz     1 2pz     1 2pz     1 2pz     1 2pz     1 2pz     1 2pz     1 2pz  
                                   1 2pz     1 2pz     1 2pz     1 2pz     1 2pz     1 2pz     1 2pz     1 2pz     1 2pz     1 3d0  
                                   1 3d2+    1 3d0     1 3d2+    1 3d0     1 3d2+    1 3d0     1 3d2+    1 3d0     1 3d2+    1 3d0  
                                   1 3d2+    1 3d0     1 3d2+    1 3d0     1 3d2+    1 3d0     1 3d2+    1 3d0     1 3d2+    1 3d0  
                                   1 3d2+    1 3d0     1 3d2+    1 3d0     1 3d2+    1 3d0     1 3d2+    1 3d0     1 3d2+    1 3d0  
                                   1 3d2+    1 3d0     1 3d2+    1 3d0     1 3d2+    1 3d0     1 3d2+    1 3d0     1 3d2+    1 3d0  
                                   1 3d2+    1 3d0     1 3d2+    1 4f0     1 4f2+    1 4f0     1 4f2+    1 4f0     1 4f2+    1 4f0  
                                   1 4f2+    1 4f0     1 4f2+    1 4f0     1 4f2+    1 4f0     1 4f2+    1 4f0     1 4f2+    1 4f0  
                                   1 4f2+    1 4f0     1 4f2+    1 4f0     1 4f2+    1 4f0     1 4f2+    1 4f0     1 4f2+    1 4f0  
                                   1 4f2+    1 4f0     1 4f2+    1 5g0     1 5g4+    1 5g2+    1 5g0     1 5g4+    1 5g2+    1 5g0  
                                   1 5g4+    1 5g2+    2 1s      2 1s      2 1s      2 1s      2 1s      2 1s      2 1s      2 1s   
                                   2 1s      2 1s      2 1s      2 1s      2 1s      2 2pz     2 2pz     2 2pz     2 2pz     2 2pz  
                                   2 2pz     2 2pz     2 2pz     2 3d0     2 3d2+    2 3d0     2 3d2+    2 3d0     2 3d2+    2 3d0  
                                   2 3d2+    2 4f0     2 4f2+    2 4f0     2 4f2+ 

   1.1   2 -2814.4776-6062.2641  0.000014  0.000038  0.000104  0.000238  0.000499  0.000967  0.001786  0.003190  0.005597  0.009730
                                 0.016892  0.029390  0.051246  0.088886  0.149607  0.231170  0.289996  0.001232  0.238663  0.091365
                                 0.007976  0.001180 -0.001214  0.002512 -0.003709  0.002253 -0.000671  0.000612 -0.001101  0.000884
                                -0.000243  0.000217 -0.000121  0.000008 -0.000005 -0.000000 -0.000000 -0.000000 -0.000000 -0.000000
                                -0.000000 -0.000000 -0.000000 -0.000000 -0.000000 -0.000000 -0.000000 -0.000000 -0.000000 -0.000000
                                 0.000000  0.000000  0.000000  0.000000 -0.000000  0.000000 -0.000000  0.000001 -0.000007  0.000012
                                -0.000015  0.000013 -0.000005  0.000000  0.000004 -0.000006  0.000002 -0.000002  0.000000 -0.000000
                                -0.000000  0.000000  0.000000  0.000000 -0.000000  0.000000  0.000000  0.000000  0.000000 -0.000000
                                -0.000000 -0.000000  0.000000  0.000000 -0.000000 -0.000000  0.000000  0.000000 -0.000000 -0.000001
                                 0.000000  0.000004  0.000000 -0.000019 -0.000000  0.000026  0.000000 -0.000024 -0.000000  0.000016
                                 0.000000 -0.000007 -0.000000  0.000013  0.000000 -0.000010 -0.000000  0.000001  0.000000  0.000000
                                -0.000000 -0.000000  0.000000  0.000000  0.000000  0.000000 -0.000000 -0.000000  0.000000  0.000000
                                -0.000000 -0.000000  0.000000  0.000000 -0.000000 -0.000000  0.000000  0.000000 -0.000000 -0.000001
                                 0.000000  0.000002 -0.000000 -0.000004  0.000000  0.000004 -0.000000 -0.000003  0.000000  0.000001
                                -0.000000 -0.000000 -0.000000 -0.000000  0.000000 -0.000000  0.000001 -0.000000  0.000000 -0.000000
                                 0.000000  0.000000  0.000000 -0.000000  0.000000 -0.000000  0.000000  0.000002  0.000002  0.000002
                                -0.000001 -0.000002 -0.000003 -0.000001  0.000003 -0.000000 -0.000000  0.000000 -0.000001  0.000000
                                 0.000000  0.000000 -0.000001 -0.000000  0.000000  0.000000 -0.000000  0.000000 -0.000000  0.000000
                                 0.000000  0.000000  0.000000 -0.000000  0.000000

   2.1   2  -498.7850-1328.2884 -0.000005 -0.000015 -0.000040 -0.000091 -0.000192 -0.000372 -0.000688 -0.001231 -0.002168 -0.003790
                                -0.006638 -0.011706 -0.020849 -0.037387 -0.066458 -0.112361 -0.162874 -0.000164 -0.151908  0.044804
                                 0.409157  0.493670  0.184945  0.020367 -0.009402  0.007342 -0.002857  0.002672 -0.005224  0.004267
                                -0.001208  0.001104 -0.000616  0.000041 -0.000023 -0.000000 -0.000000  0.000000  0.000000  0.000000
                                 0.000000  0.000000  0.000000  0.000000  0.000000  0.000000  0.000001  0.000001  0.000003  0.000006
                                -0.000000  0.000009  0.000014  0.000012  0.000000  0.000001 -0.000001  0.000005 -0.000036  0.000062
                                -0.000079  0.000071 -0.000026  0.000001  0.000022 -0.000029  0.000013 -0.000008  0.000000 -0.000000
                                 0.000000 -0.000000 -0.000000 -0.000000  0.000000 -0.000000 -0.000000 -0.000000  0.000000 -0.000001
                                 0.000000 -0.000003 -0.000000 -0.000001  0.000000 -0.000001 -0.000000  0.000001  0.000000 -0.000004
                                -0.000000  0.000019  0.000000 -0.000089 -0.000000  0.000126  0.000000 -0.000118 -0.000000  0.000081
                                 0.000000 -0.000037 -0.000000  0.000067  0.000000 -0.000052 -0.000000  0.000003  0.000000  0.000002
                                -0.000000 -0.000002  0.000000 -0.000000 -0.000000  0.000000 -0.000000 -0.000000 -0.000000 -0.000000
                                 0.000000 -0.000000 -0.000000  0.000000  0.000000 -0.000000 -0.000000  0.000001  0.000000 -0.000004
                                -0.000000  0.000011 -0.000000 -0.000018  0.000000  0.000020 -0.000000 -0.000016  0.000000  0.000006
                                -0.000000 -0.000000 -0.000000 -0.000001  0.000000  0.000000  0.000003  0.000000 -0.000000 -0.000002
                                -0.000000  0.000000  0.000000 -0.000000  0.000000 -0.000000  0.000001  0.000010  0.000013  0.000009
                                -0.000004 -0.000008 -0.000014 -0.000007  0.000014 -0.000000 -0.000001  0.000001 -0.000006  0.000002
                                 0.000001  0.000000 -0.000003 -0.000001  0.000000  0.000002 -0.000000  0.000000  0.000000  0.000000
                                 0.000000  0.000000  0.000000 -0.000000 -0.000000

   3.1   2  -434.8233-1212.1712  0.000000  0.000000  0.000000  0.000000  0.000000  0.000000  0.000000  0.000000  0.000000  0.000000
                                 0.000000  0.000000  0.000001  0.000001  0.000002  0.000004  0.000006 -0.000000  0.000006 -0.000003
                                -0.000012 -0.000011 -0.000016 -0.000007  0.000000  0.000002  0.000003  0.000000  0.000002 -0.000003
                                 0.000001 -0.000004  0.000003 -0.000001  0.000000 -0.000000  0.000000  0.000003  0.000008  0.000024
                                 0.000062  0.000153  0.000367  0.000873  0.002085  0.005048  0.012348  0.030033  0.070112  0.147676
                                -0.000315  0.257468  0.326978  0.249421  0.089030  0.009866  0.000452 -0.000270  0.000447 -0.000619
                                 0.000440 -0.000302  0.000084 -0.000024  0.000019 -0.000007  0.000000  0.000000  0.000000  0.000000
                                 0.000000  0.000000 -0.000000  0.000000  0.000000 -0.000000 -0.000000 -0.000000  0.000000  0.000001
                                 0.000000  0.000004  0.000000  0.000002 -0.000000 -0.000000  0.000000 -0.000001 -0.000000 -0.000000
                                 0.000000 -0.000001 -0.000000  0.000003  0.000000 -0.000005 -0.000000  0.000005  0.000000 -0.000003
                                -0.000000  0.000002 -0.000000 -0.000003  0.000000  0.000002 -0.000000 -0.000000  0.000000  0.000000
                                -0.000000  0.000000  0.000000  0.000000  0.000000 -0.000000  0.000000  0.000000  0.000000  0.000001
                                -0.000000 -0.000002  0.000000 -0.000001 -0.000000 -0.000001 -0.000000  0.000001  0.000000 -0.000000
                                -0.000000  0.000001  0.000000 -0.000000 -0.000000  0.000000  0.000000  0.000000 -0.000000 -0.000000
                                -0.000000  0.000000 -0.000000  0.000000 -0.000000  0.000000 -0.000000  0.000000  0.000000  0.000000
                                -0.000000  0.000000 -0.000000 -0.000000 -0.000000 -0.000000 -0.000000 -0.000000 -0.000000  0.000000
                                 0.000000  0.000000  0.000000  0.000000  0.000000  0.000000  0.000000 -0.000000 -0.000000 -0.000000
                                -0.000000 -0.000000 -0.000000  0.000000 -0.000000 -0.000000 -0.000000 -0.000000  0.000000  0.000000
                                 0.000000 -0.000000  0.000000  0.000000 -0.000000

   4.1   2  -120.0730 -473.0030  0.000003  0.000007  0.000019  0.000044  0.000092  0.000177  0.000328  0.000588  0.001036  0.001813
                                 0.003180  0.005620  0.010045  0.018113  0.032506  0.055830  0.083251 -0.000086  0.079919 -0.039621
                                -0.341951 -0.547942 -0.085022  0.719103  0.018328  0.538214  0.080405  0.008802 -0.013619  0.012147
                                -0.004003  0.003742 -0.002159  0.000142 -0.000083 -0.000002 -0.000001 -0.000000 -0.000000 -0.000000
                                -0.000000 -0.000000 -0.000000 -0.000000 -0.000000 -0.000001 -0.000001 -0.000003 -0.000008 -0.000016
                                -0.000001 -0.000028 -0.000043 -0.000022  0.000075  0.000094  0.000032  0.000031 -0.000150  0.000253
                                -0.000322  0.000293 -0.000109  0.000017  0.000074 -0.000106  0.000046 -0.000029  0.000001 -0.000000
                                -0.000000 -0.000000  0.000000 -0.000000 -0.000000 -0.000000  0.000000 -0.000000 -0.000000 -0.000000
                                 0.000000  0.000001 -0.000000 -0.000001  0.000000 -0.000007  0.000000 -0.000031 -0.000000 -0.000031
                                 0.000000  0.000068 -0.000000 -0.000312  0.000000  0.000438 -0.000000 -0.000414  0.000000  0.000283
                                -0.000000 -0.000136  0.000000  0.000248 -0.000000 -0.000192  0.000000  0.000010 -0.000000  0.000008
                                 0.000000 -0.000005 -0.000000  0.000000  0.000000 -0.000000 -0.000000  0.000000  0.000000  0.000001
                                -0.000000  0.000003  0.000000  0.000001 -0.000000  0.000000  0.000000  0.000003 -0.000000 -0.000014
                                 0.000000  0.000038 -0.000000 -0.000065  0.000000  0.000073 -0.000000 -0.000060  0.000000  0.000022
                                -0.000000 -0.000001  0.000000 -0.000010 -0.000013 -0.000000  0.000015  0.000011  0.000000 -0.000011
                                -0.000004 -0.000000  0.000000 -0.000000  0.000000 -0.000000  0.000002  0.000030  0.000044  0.000035
                                -0.000016 -0.000029 -0.000048 -0.000021  0.000051 -0.000001 -0.000003  0.000003 -0.000025  0.000005
                                 0.000002  0.000000 -0.000011 -0.000002 -0.000000  0.000009  0.000000  0.000000  0.000000  0.000002
                                 0.000000  0.000002  0.000000 -0.000001 -0.000000

   5.1   2  -100.9789 -436.1798 -0.000000 -0.000000 -0.000000 -0.000000 -0.000000 -0.000000 -0.000000 -0.000000 -0.000000 -0.000000
                                -0.000000 -0.000001 -0.000002 -0.000003 -0.000005 -0.000009 -0.000013  0.000000 -0.000013  0.000008
                                 0.000050  0.000058  0.000061 -0.000047 -0.000057 -0.000117 -0.000038 -0.000020  0.000100 -0.000109
                                 0.000107 -0.000235  0.000197 -0.000059  0.000029 -0.000004  0.000001 -0.000001 -0.000004 -0.000012
                                -0.000032 -0.000079 -0.000189 -0.000450 -0.001078 -0.002625 -0.006472 -0.015962 -0.038051 -0.083090
                                 0.000811 -0.151992 -0.196312 -0.091913  0.227271  0.497323  0.337424  0.075615  0.016856 -0.015524
                                 0.014463 -0.010527  0.003229 -0.001246  0.000954 -0.000358  0.000016  0.000005  0.000000  0.000000
                                -0.000000  0.000000 -0.000000  0.000000  0.000000  0.000000 -0.000000  0.000000  0.000000 -0.000000
                                -0.000000 -0.000003  0.000000  0.000003 -0.000000  0.000016  0.000000  0.000007 -0.000000  0.000022
                                 0.000000 -0.000017 -0.000000  0.000155  0.000000 -0.000217 -0.000000  0.000215  0.000000 -0.000152
                                -0.000000  0.000078  0.000000 -0.000171 -0.000000  0.000147  0.000000 -0.000030 -0.000000  0.000008
                                 0.000000  0.000001 -0.000000 -0.000000  0.000000  0.000000 -0.000000  0.000000  0.000000 -0.000005
                                -0.000000 -0.000027  0.000000 -0.000004 -0.000000  0.000012  0.000000 -0.000008 -0.000000  0.000001
                                 0.000000 -0.000014 -0.000000  0.000013  0.000000 -0.000022 -0.000000  0.000024  0.000000 -0.000017
                                -0.000000  0.000005  0.000000  0.000002 -0.000000  0.000000 -0.000002  0.000000 -0.000000  0.000003
                                -0.000000  0.000000  0.000000  0.000000  0.000000  0.000000 -0.000000 -0.000004 -0.000009 -0.000007
                                 0.000005  0.000010  0.000009  0.000003 -0.000006  0.000000  0.000001  0.000000  0.000013 -0.000016
                                -0.000000 -0.000000  0.000001  0.000001 -0.000000 -0.000011  0.000000 -0.000000  0.000000  0.000005
                                -0.000000 -0.000001 -0.000000  0.000004  0.000000

   6.1   2   -79.1697 -401.2711 -0.000000 -0.000000 -0.000000 -0.000000 -0.000000 -0.000000 -0.000000 -0.000000 -0.000000 -0.000000
                                -0.000000 -0.000000 -0.000000 -0.000000 -0.000000  0.000000 -0.000000  0.000000 -0.000000  0.000000
                                -0.000000  0.000000 -0.000000  0.000000 -0.000000  0.000000 -0.000000  0.000000 -0.000000  0.000000
                                -0.000000  0.000000 -0.000000  0.000000 -0.000000 -0.000000 -0.000000 -0.000000  0.000000  0.000000
                                 0.000000 -0.000000  0.000000  0.000000  0.000000 -0.000000  0.000000 -0.000000  0.000000 -0.000000
                                 0.000000 -0.000000  0.000000 -0.000000 -0.000000  0.000000 -0.000000  0.000000 -0.000000  0.000000
                                -0.000000  0.000000 -0.000000  0.000000 -0.000000 -0.000000  0.000000 -0.000000  0.000000 -0.000000
                                 0.000023 -0.000000  0.000139 -0.000000  0.000775 -0.000000  0.003570 -0.000000  0.013715 -0.000000
                                 0.042431 -0.000000  0.107413 -0.000000  0.212920 -0.000000  0.317032 -0.000000  0.314201 -0.000000
                                 0.165354 -0.000000  0.039826 -0.000000 -0.003076  0.000000  0.006435 -0.000000 -0.001696  0.000000
                                 0.001210 -0.000000 -0.000151  0.000000  0.000212 -0.000000 -0.000131  0.000000  0.000012  0.000000
                                -0.000003 -0.000000  0.000001 -0.000000 -0.000000  0.000000 -0.000000 -0.000000  0.000003  0.000000
                                 0.000007 -0.000000  0.000001  0.000000  0.000003 -0.000000  0.000001  0.000000  0.000001 -0.000000
                                 0.000002  0.000000  0.000001 -0.000000  0.000000  0.000000  0.000001 -0.000000  0.000000  0.000000
                                 0.000000 -0.000000 -0.000000 -0.000000  0.000000  0.000007  0.000000 -0.000000 -0.000006 -0.000000
                                 0.000000  0.000002 -0.000000  0.000000 -0.000000  0.000000  0.000000  0.000000  0.000000  0.000000
                                -0.000000 -0.000000 -0.000000 -0.000000  0.000000 -0.000000 -0.000000  0.000000 -0.000000  0.000000
                                 0.000000  0.000000 -0.000000 -0.000000  0.000000  0.000000 -0.000000  0.000000 -0.000000 -0.000000
                                -0.000000  0.000000 -0.000000  0.000000  0.000000

   7.1   2   -79.1621 -401.2699  0.000000  0.000000  0.000000  0.000000  0.000000  0.000000  0.000000  0.000000  0.000000  0.000000
                                 0.000000  0.000000  0.000001  0.000001  0.000003  0.000004  0.000007 -0.000000  0.000007 -0.000004
                                -0.000034 -0.000056  0.000012  0.000190 -0.000131  0.000061 -0.000049  0.000058 -0.000209  0.000218
                                -0.000125  0.000200 -0.000139  0.000015 -0.000012 -0.000002  0.000000  0.000000  0.000000  0.000000
                                 0.000000  0.000000  0.000000  0.000000  0.000000  0.000000  0.000000  0.000001  0.000003  0.000007
                                -0.000001  0.000012  0.000012  0.000002 -0.000019 -0.000048 -0.000022  0.000040 -0.000089  0.000199
                                -0.000270  0.000262 -0.000122  0.000053 -0.000037 -0.000006  0.000005 -0.000007  0.000001  0.000023
                                 0.000000  0.000139  0.000000  0.000775  0.000000  0.003570  0.000000  0.013714  0.000000  0.042427
                                 0.000000  0.107403  0.000000  0.212899  0.000000  0.317017  0.000000  0.314219  0.000000  0.165380
                                 0.000000  0.039850  0.000000 -0.003173  0.000000  0.006576 -0.000000 -0.001832  0.000000  0.001309
                                -0.000000 -0.000199  0.000000  0.000304 -0.000000 -0.000203  0.000000  0.000017 -0.000000 -0.000005
                                 0.000000 -0.000000 -0.000000 -0.000000 -0.000000 -0.000000 -0.000000  0.000003 -0.000000  0.000007
                                -0.000000 -0.000002 -0.000000 -0.000000  0.000000  0.000002 -0.000000  0.000004  0.000000 -0.000004
                                -0.000000  0.000014  0.000000 -0.000021 -0.000000  0.000025 -0.000000 -0.000021  0.000000  0.000008
                                -0.000000 -0.000002  0.000000 -0.000011  0.000016  0.000000  0.000015 -0.000016 -0.000000 -0.000008
                                 0.000006  0.000000  0.000000 -0.000000  0.000000 -0.000000  0.000000  0.000007  0.000011  0.000009
                                -0.000004 -0.000003 -0.000012 -0.000005  0.000008 -0.000000 -0.000001  0.000002 -0.000007  0.000005
                                 0.000001  0.000000 -0.000002 -0.000001 -0.000000  0.000003  0.000000  0.000000 -0.000000 -0.000002
                                -0.000000  0.000001  0.000000 -0.000000 -0.000000

   8.1   2   -27.9184 -207.0028 -0.000001 -0.000003 -0.000009 -0.000022 -0.000045 -0.000088 -0.000163 -0.000292 -0.000514 -0.000900
                                -0.001579 -0.002793 -0.004996 -0.009024 -0.016220 -0.028009 -0.041793 -0.000417 -0.040158  0.021879
                                 0.196085  0.334948  0.051096 -0.765205 -0.019614 -0.738012  0.498797  0.940006 -0.091153  0.278556
                                -0.045529  0.048889 -0.027019  0.001671 -0.001123 -0.000039 -0.000006  0.000000  0.000000  0.000000
                                 0.000000  0.000000  0.000000  0.000000  0.000001  0.000002  0.000004  0.000010  0.000024  0.000054
                                -0.000003  0.000102  0.000130  0.000052 -0.000262 -0.000506 -0.000236  0.000591 -0.000813  0.002253
                                -0.002018  0.002372 -0.000816 -0.000280  0.001563 -0.001756  0.000475 -0.000387  0.000009 -0.000000
                                 0.000000 -0.000000 -0.000000 -0.000000  0.000000 -0.000000 -0.000000 -0.000001  0.000000 -0.000000
                                -0.000000 -0.000007  0.000000  0.000001 -0.000000 -0.000024 -0.000000  0.000055  0.000000 -0.000057
                                 0.000000  0.000556  0.000000 -0.002547 -0.000000  0.003680  0.000000 -0.003970 -0.000000  0.002888
                                 0.000000 -0.001440 -0.000000  0.002832  0.000000 -0.002180 -0.000000 -0.000003  0.000000  0.000091
                                -0.000000 -0.000074  0.000000 -0.000000  0.000000 -0.000000 -0.000000 -0.000001 -0.000000 -0.000004
                                -0.000000 -0.000012 -0.000000 -0.000024 -0.000000 -0.000039 -0.000000  0.000061 -0.000000 -0.000151
                                 0.000000  0.000456 -0.000000 -0.000804  0.000000  0.000940  0.000000 -0.000789 -0.000000  0.000254
                                -0.000000 -0.000012  0.000000 -0.000239 -0.000551 -0.000000  0.000392  0.000673  0.000000 -0.000222
                                -0.000213 -0.000000  0.000000  0.000000  0.000000 -0.000000  0.000015  0.000268  0.000448  0.000493
                                -0.000184 -0.000207 -0.000473 -0.000177  0.000709 -0.000008 -0.000029  0.000030 -0.000350 -0.000003
                                 0.000018  0.000003 -0.000147 -0.000019 -0.000000  0.000101  0.000000  0.000002  0.000000  0.000028
                                -0.000000  0.000026  0.000000  0.000001 -0.000000

   9.1   2   -21.8693  -85.1708  0.000000  0.000000  0.000000  0.000000  0.000000  0.000000  0.000000  0.000000  0.000000  0.000000
                                 0.000000  0.000000  0.000000 -0.000000  0.000001 -0.000003  0.000028 -0.000059  0.000059 -0.000059
                                 0.000103 -0.000262  0.000750 -0.004027  0.009457 -0.008839  0.006710 -0.016303  0.063576 -0.071656
                                 0.055085 -0.119522  0.096552 -0.019287 -0.013535 -0.001294  0.000198  0.000000  0.000000  0.000000
                                 0.000000  0.000000  0.000000  0.000000  0.000000  0.000001  0.000003  0.000006  0.000016  0.000028
                                 0.000021  0.000040  0.000099  0.000002 -0.000091 -0.000441  0.000098 -0.000580  0.009304 -0.017226
                                 0.031313 -0.036458  0.021630 -0.020758  0.017255  0.005438 -0.018463 -0.004042  0.000055  0.000000
                                -0.000000 -0.000000  0.000000  0.000000 -0.000000 -0.000000  0.000000  0.000001 -0.000000 -0.000002
                                 0.000000  0.000012 -0.000000 -0.000019  0.000000  0.000066 -0.000000 -0.000138  0.000000  0.000400
                                -0.000000 -0.002194  0.000000  0.011349 -0.000000 -0.017282  0.000000  0.019120 -0.000000 -0.015093
                                 0.000000  0.011482 -0.000000 -0.032030  0.000000  0.031220 -0.000000 -0.003515  0.000000 -0.006504
                                -0.000000  0.000026  0.000000 -0.000000  0.000000  0.000000 -0.000000 -0.000000  0.000000  0.000000
                                -0.000000 -0.000001  0.000000  0.000003 -0.000000 -0.000021  0.000000  0.000108 -0.000000 -0.001020
                                -0.000000  0.002556  0.000000 -0.003061 -0.000000  0.001637  0.000000  0.003138 -0.000000 -0.001022
                                 0.000000 -0.001792 -0.000000  0.000646  0.000000 -0.000000 -0.001416 -0.000000  0.000000  0.001633
                                 0.000000 -0.000000  0.000742  0.004246  0.020669  0.080064  0.228809  0.396269  0.310270 -0.024483
                                 0.054209  0.029744  0.046856  0.026532  0.009364  0.000038 -0.000790 -0.002245  0.007197 -0.008894
                                -0.000657 -0.000112 -0.001963  0.000540  0.000000 -0.003774 -0.000000 -0.000056  0.000000  0.000805
                                 0.000000  0.000118 -0.000000  0.001216  0.000000

  10.1   2   -21.5209 -189.7433  0.000000  0.000000  0.000000  0.000000  0.000000  0.000000  0.000000  0.000000  0.000001  0.000001
                                 0.000002  0.000004  0.000007  0.000014  0.000024  0.000042  0.000063  0.000001  0.000060 -0.000034
                                -0.000292 -0.000485 -0.000118  0.001080  0.000087  0.001245 -0.000531 -0.002973  0.002244 -0.001283
                                 0.000189  0.001162 -0.001358 -0.000041 -0.000089 -0.000049  0.000009  0.000001  0.000002  0.000006
                                 0.000016  0.000039  0.000093  0.000222  0.000532  0.001296  0.003203  0.007922  0.018993  0.041765
                                -0.000294  0.077248  0.100642  0.035805 -0.175856 -0.409408 -0.201618  0.354633  0.581580 -0.007022
                                 0.300032 -0.024409  0.045842 -0.001464  0.001902 -0.000809  0.000050 -0.000063 -0.000000 -0.000000
                                -0.000000 -0.000000  0.000000 -0.000000 -0.000000 -0.000001  0.000000 -0.000003 -0.000000 -0.000010
                                 0.000000 -0.000024 -0.000000 -0.000057  0.000000 -0.000082 -0.000000 -0.000072  0.000000  0.000012
                                 0.000000 -0.000063 -0.000000  0.000461  0.000000 -0.000526 -0.000000  0.001175  0.000000 -0.000311
                                -0.000000  0.000332  0.000000  0.000087 -0.000000 -0.000365  0.000000  0.000030 -0.000000  0.000009
                                 0.000000 -0.000006 -0.000000  0.000000  0.000000 -0.000001  0.000000 -0.000001 -0.000000 -0.000005
                                 0.000000  0.000005  0.000000  0.000005  0.000000 -0.000000 -0.000000 -0.000193 -0.000000  0.000026
                                 0.000000 -0.000059 -0.000000  0.000423  0.000000 -0.000324 -0.000000  0.000090  0.000000  0.000001
                                -0.000000  0.000014  0.000000  0.000182 -0.000001  0.000000 -0.000168 -0.000000 -0.000000  0.000023
                                -0.000000  0.000000 -0.000001 -0.000004 -0.000019 -0.000074 -0.000216 -0.000435 -0.000391  0.000154
                                -0.000093  0.000138  0.000067  0.000020  0.000147  0.000004  0.000014 -0.000005 -0.000195 -0.000134
                                -0.000010 -0.000002 -0.000026  0.000043 -0.000000  0.000132  0.000000 -0.000001 -0.000000  0.000038
                                -0.000000 -0.000040  0.000000 -0.000027 -0.000000

  11.1   2   -13.3827 -168.7221 -0.000000  0.000000  0.000000  0.000000 -0.000000  0.000000 -0.000000 -0.000000 -0.000000 -0.000000
                                -0.000000 -0.000000 -0.000000 -0.000000 -0.000000 -0.000000 -0.000000 -0.000000  0.000000 -0.000000
                                 0.000000  0.000000  0.000000 -0.000000  0.000000 -0.000000  0.000000 -0.000000  0.000000 -0.000000
                                 0.000000 -0.000000  0.000000 -0.000000  0.000000  0.000000 -0.000000  0.000000 -0.000000  0.000000
                                -0.000000  0.000000 -0.000000 -0.000000 -0.000000 -0.000000 -0.000000 -0.000000 -0.000000  0.000000
                                -0.000000  0.000000 -0.000000  0.000000 -0.000000  0.000000 -0.000000  0.000000 -0.000000  0.000000
                                -0.000000  0.000000 -0.000000  0.000000 -0.000000  0.000000 -0.000000  0.000000 -0.000000 -0.000000
                                -0.000012 -0.000000 -0.000071 -0.000000 -0.000397 -0.000000 -0.001832 -0.000000 -0.007094 -0.000000
                                -0.022139 -0.000000 -0.057088 -0.000000 -0.113791 -0.000000 -0.165027 -0.000000 -0.123841  0.000000
                                 0.109319  0.000000  0.364958 -0.000000  0.028821  0.000000  0.382370 -0.000000  0.028682  0.000000
                                 0.196795 -0.000000  0.044783 -0.000000 -0.006909  0.000000  0.006118 -0.000000 -0.000232 -0.000000
                                 0.000091 -0.000000 -0.000017  0.000000  0.000000  0.000000  0.000001  0.000000  0.000002  0.000000
                                 0.000011  0.000000  0.000034  0.000000  0.000059  0.000000  0.000074  0.000000  0.000212 -0.000000
                                 0.000401  0.000000 -0.000260 -0.000000  0.000175  0.000000 -0.000139 -0.000000  0.000035  0.000000
                                 0.000002 -0.000000  0.000016 -0.000000  0.000000  0.000606  0.000000 -0.000000 -0.000628  0.000000
                                 0.000000  0.000186 -0.000000 -0.000000 -0.000000  0.000000 -0.000000 -0.000000 -0.000000 -0.000000
                                 0.000000  0.000000  0.000000  0.000000 -0.000000 -0.000000 -0.000000 -0.000000  0.000000  0.000000
                                 0.000000  0.000000  0.000000  0.000000  0.000015 -0.000000  0.000001  0.000000  0.000000 -0.000000
                                -0.000034  0.000000 -0.000028  0.000000  0.000036

  12.1   2   -13.3757 -168.7019 -0.000000 -0.000000 -0.000000 -0.000000 -0.000000 -0.000000 -0.000000 -0.000000 -0.000000 -0.000000
                                -0.000000 -0.000000 -0.000000 -0.000001 -0.000002 -0.000003 -0.000003 -0.000002 -0.000002  0.000001
                                 0.000029  0.000033  0.000042 -0.000429  0.000516 -0.000576  0.000764  0.000477 -0.002060  0.001041
                                -0.002368  0.009238 -0.006941 -0.001109 -0.000774 -0.000216  0.000028 -0.000000 -0.000000 -0.000000
                                -0.000000 -0.000000 -0.000000 -0.000000 -0.000001 -0.000002 -0.000005 -0.000013 -0.000030 -0.000067
                                 0.000002 -0.000126 -0.000159 -0.000054  0.000303  0.000724  0.000321 -0.000892 -0.001638  0.000309
                                -0.001107  0.002999 -0.001845  0.003311 -0.002756 -0.000495 -0.000856 -0.000295 -0.000037 -0.000011
                                 0.000000 -0.000071  0.000000 -0.000396  0.000000 -0.001830  0.000000 -0.007085  0.000000 -0.022111
                                 0.000000 -0.057014  0.000000 -0.113645  0.000000 -0.164817  0.000000 -0.123735  0.000000  0.109052
                                -0.000000  0.364140 -0.000000  0.029603  0.000000  0.380776 -0.000000  0.029639  0.000000  0.197108
                                -0.000000  0.045453  0.000000 -0.004533 -0.000000  0.003553  0.000000 -0.000558 -0.000000 -0.000157
                                 0.000000 -0.000055 -0.000000  0.000000 -0.000000  0.000002  0.000000  0.000010 -0.000000  0.000042
                                 0.000000  0.000120 -0.000000  0.000213  0.000000  0.000274 -0.000000  0.000456 -0.000000  0.000994
                                 0.000000 -0.001264 -0.000000  0.001687  0.000000 -0.001088 -0.000000 -0.000115  0.000000 -0.000079
                                -0.000000 -0.000041  0.000000 -0.000246  0.000973  0.000000  0.000822 -0.001172 -0.000000 -0.000476
                                 0.000300  0.000000 -0.000000 -0.000001 -0.000007 -0.000028 -0.000088 -0.000247 -0.000301  0.001030
                                -0.000104  0.001681  0.000131  0.000049  0.000834  0.000003 -0.000019 -0.000226 -0.001146 -0.000817
                                -0.000026 -0.000006 -0.000109  0.000221 -0.000000  0.000521  0.000000  0.000003 -0.000000  0.000104
                                -0.000000 -0.000132  0.000000 -0.000063 -0.000000

  13.1   2    -5.5370  -93.1875  0.000001  0.000001  0.000004  0.000009  0.000019  0.000037  0.000069  0.000124  0.000218  0.000382
                                 0.000671  0.001187  0.002123  0.003836  0.006898  0.011927  0.017796  0.000230  0.017101 -0.009523
                                -0.086213 -0.149588 -0.023776  0.394800  0.008542  0.397614 -0.362179 -0.907459 -0.135177  0.011592
                                 0.797231  0.246766  0.332762  0.016580 -0.021817 -0.002942  0.000348 -0.000000 -0.000000 -0.000000
                                -0.000000 -0.000000 -0.000001 -0.000002 -0.000005 -0.000013 -0.000032 -0.000079 -0.000191 -0.000414
                                -0.000014 -0.000756 -0.001027 -0.000313  0.001888  0.004646  0.001663 -0.004500 -0.018796  0.019113
                                -0.043652  0.050706 -0.021706  0.039952 -0.019019 -0.008957 -0.003558 -0.007703 -0.000180  0.000000
                                -0.000000  0.000000 -0.000000  0.000002  0.000000  0.000011 -0.000000  0.000044  0.000000  0.000139
                                -0.000000  0.000355  0.000000  0.000719 -0.000000  0.001012  0.000000  0.000761  0.000000 -0.001058
                                -0.000000 -0.001806  0.000000 -0.005447 -0.000000  0.005735  0.000000 -0.010956 -0.000000  0.009389
                                 0.000000 -0.008387 -0.000000  0.042845  0.000000 -0.032030 -0.000000  0.000197  0.000000 -0.001941
                                 0.000000 -0.001088 -0.000000  0.000002 -0.000000  0.000017 -0.000000  0.000097 -0.000000  0.000348
                                -0.000000  0.000947 -0.000000  0.001843 -0.000000  0.002632 -0.000000  0.002383 -0.000000  0.003673
                                 0.000000 -0.004563 -0.000000  0.006715  0.000000  0.000898 -0.000000 -0.005510  0.000000  0.002090
                                -0.000000 -0.000584  0.000000 -0.000937 -0.000073  0.000000  0.003396 -0.000239 -0.000000 -0.001226
                                 0.002258  0.000000 -0.000010 -0.000054 -0.000269 -0.001049 -0.003318 -0.008694 -0.011130  0.027232
                                 0.005876  0.018218  0.002509  0.000941  0.017180 -0.000215 -0.003015 -0.012053 -0.023575 -0.010029
                                -0.000665 -0.000207 -0.003026  0.003916 -0.000000  0.009092 -0.000000  0.000152 -0.000000  0.001802
                                -0.000000 -0.001647  0.000000 -0.001431  0.000000

  14.1   2    -4.3181 -140.9719 -0.000000 -0.000000 -0.000000 -0.000000 -0.000000 -0.000001 -0.000001 -0.000002 -0.000004 -0.000007
                                -0.000013 -0.000023 -0.000040 -0.000073 -0.000131 -0.000226 -0.000345  0.000011 -0.000339  0.000195
                                 0.001611  0.002904  0.000262 -0.006426 -0.002757 -0.005026  0.004491  0.024653 -0.035911  0.053223
                                -0.085194  0.181649 -0.163288 -0.006718 -0.012818 -0.003770  0.000611 -0.000000 -0.000000 -0.000000
                                -0.000000 -0.000001 -0.000002 -0.000005 -0.000013 -0.000032 -0.000079 -0.000194 -0.000469 -0.001021
                                -0.000025 -0.001873 -0.002517 -0.000780  0.004639  0.011371  0.004275 -0.011464 -0.039921  0.033326
                                -0.075669  0.083234 -0.035459  0.102890 -0.061387  0.014626 -0.004803 -0.005490 -0.000234  0.000000
                                -0.000000  0.000000  0.000000  0.000002 -0.000000  0.000008  0.000000  0.000033 -0.000000  0.000102
                                -0.000000  0.000264 -0.000000  0.000526 -0.000000  0.000768 -0.000000  0.000555  0.000000 -0.000623
                                -0.000000 -0.001913  0.000000 -0.000898 -0.000000 -0.000225  0.000000 -0.004716 -0.000000  0.005790
                                 0.000000 -0.010924 -0.000000  0.056596  0.000000 -0.056191 -0.000000  0.003508  0.000000 -0.001940
                                -0.000000 -0.000515  0.000000  0.000215  0.000000  0.002008  0.000000  0.011448  0.000000  0.041709
                                 0.000000  0.111882  0.000000  0.221181  0.000000  0.303556  0.000000  0.308853  0.000000  0.225320
                                 0.000000 -0.003494  0.000000  0.111986 -0.000000 -0.004924  0.000000  0.012644 -0.000000  0.001440
                                 0.000000  0.000077 -0.000000  0.001617 -0.000001 -0.000000  0.001362  0.000018  0.000000 -0.002610
                                -0.000060 -0.000000 -0.000008 -0.000044 -0.000217 -0.000843 -0.002722 -0.007745 -0.010054  0.028036
                                 0.004402  0.020812  0.002921  0.001191  0.014329 -0.000187 -0.002858 -0.011754 -0.027385 -0.013144
                                -0.000651 -0.000197 -0.002518  0.004153  0.000000  0.012585 -0.000000  0.000116  0.000000  0.002867
                                 0.000000 -0.002221 -0.000000 -0.002745 -0.000000

  15.1   2    -4.3105 -141.7213 -0.000000  0.000000  0.000000  0.000000 -0.000000  0.000000 -0.000000  0.000000  0.000000  0.000000
                                 0.000000  0.000000  0.000000  0.000000  0.000000  0.000000  0.000000 -0.000000  0.000000 -0.000000
                                -0.000000 -0.000000  0.000000  0.000000  0.000000 -0.000000  0.000000 -0.000000  0.000000 -0.000000
                                 0.000000 -0.000000  0.000000  0.000000 -0.000000 -0.000000  0.000000  0.000000  0.000000 -0.000000
                                 0.000000 -0.000000  0.000000  0.000000  0.000000  0.000000  0.000000  0.000000  0.000000  0.000000
                                 0.000000  0.000000  0.000000  0.000000 -0.000000 -0.000000 -0.000000  0.000000  0.000000 -0.000000
                                 0.000000 -0.000000  0.000000 -0.000000  0.000000  0.000000 -0.000000 -0.000000  0.000000 -0.000000
                                 0.000000 -0.000000  0.000000 -0.000000  0.000000 -0.000000  0.000002 -0.000000  0.000006 -0.000000
                                 0.000020 -0.000000  0.000051 -0.000000  0.000103 -0.000000  0.000149 -0.000000  0.000112  0.000000
                                -0.000153  0.000000 -0.000313  0.000000 -0.000533 -0.000000  0.000365  0.000000 -0.000915 -0.000000
                                 0.001003  0.000000  0.000091 -0.000000 -0.000308  0.000000  0.000331  0.000000 -0.000072 -0.000000
                                 0.000166 -0.000000  0.000003 -0.000000  0.000217 -0.000000  0.002022 -0.000000  0.011523 -0.000000
                                 0.041996 -0.000000  0.112612 -0.000000  0.222722 -0.000000  0.305417 -0.000000  0.311307 -0.000000
                                 0.222636 -0.000000  0.006721 -0.000000  0.095332 -0.000000  0.004396  0.000000  0.017471 -0.000000
                                -0.001348 -0.000000  0.000658 -0.000000  0.000000  0.001524  0.000000 -0.000000 -0.001365 -0.000000
                                 0.000000  0.000825  0.000000  0.000000  0.000000  0.000000  0.000000 -0.000000 -0.000000 -0.000000
                                 0.000000  0.000000  0.000000  0.000000  0.000000 -0.000000  0.000000  0.000000  0.000000 -0.000000
                                 0.000000  0.000000 -0.000000 -0.000000  0.000425 -0.000000  0.001094 -0.000000  0.000014 -0.000000
                                -0.000226 -0.000000 -0.000704  0.000000 -0.000094

  16.1   2    -3.8753  -79.6764 -0.000000 -0.000000 -0.000000 -0.000001 -0.000001 -0.000002 -0.000005 -0.000008 -0.000014 -0.000025
                                -0.000045 -0.000079 -0.000141 -0.000254 -0.000459 -0.000787 -0.001213  0.000053 -0.001202  0.000700
                                 0.005605  0.010245  0.000707 -0.021465 -0.012500 -0.015355  0.015031  0.091114 -0.117052  0.156311
                                -0.217997  0.344345 -0.320650 -0.030690 -0.030081 -0.011636  0.001893 -0.000000 -0.000001 -0.000002
                                -0.000006 -0.000014 -0.000034 -0.000081 -0.000195 -0.000476 -0.001177 -0.002914 -0.006996 -0.015405
                                 0.000094 -0.028560 -0.037285 -0.012280  0.070732  0.168320  0.070664 -0.197950 -0.359245  0.012582
                                -0.204226  0.111091  0.269881  0.596622 -0.013471  0.170970 -0.004669 -0.015499 -0.000822  0.000000
                                 0.000000  0.000001 -0.000000  0.000007  0.000000  0.000035 -0.000000  0.000133  0.000000  0.000420
                                 0.000000  0.001069  0.000000  0.002174  0.000000  0.003058  0.000000  0.002336 -0.000000 -0.003119
                                 0.000000 -0.005659 -0.000000 -0.014040  0.000000  0.013390 -0.000000 -0.029476  0.000000  0.025167
                                -0.000000 -0.020783  0.000000  0.111254 -0.000000 -0.087183  0.000000  0.007032 -0.000000 -0.003944
                                 0.000000 -0.001926 -0.000000 -0.000020  0.000000 -0.000189  0.000000 -0.001074  0.000000 -0.003924
                                 0.000000 -0.010509  0.000000 -0.020836  0.000000 -0.028350  0.000000 -0.029157 -0.000000 -0.014791
                                 0.000000 -0.012404 -0.000000  0.011719  0.000000  0.003612 -0.000000 -0.012872  0.000000  0.007288
                                -0.000000 -0.000774  0.000000 -0.001446 -0.000019  0.000000  0.007924  0.000086 -0.000000 -0.004432
                                -0.000213  0.000000 -0.000042 -0.000238 -0.001177 -0.004608 -0.014682 -0.039046 -0.050423  0.128477
                                 0.033945  0.074519  0.010291  0.004245  0.038800 -0.001122 -0.013995 -0.052293 -0.092298 -0.042334
                                -0.002323 -0.000794 -0.006081  0.011317 -0.000000  0.030665  0.000000  0.000460 -0.000000  0.009055
                                -0.000000 -0.004103  0.000000 -0.006038  0.000000

  17.1   2    -2.4405  -51.4604  0.000000  0.000000  0.000001  0.000002  0.000003  0.000006  0.000012  0.000021  0.000036  0.000064
                                 0.000112  0.000198  0.000354  0.000641  0.001151  0.001995  0.002946  0.000095  0.002802 -0.001541
                                -0.014557 -0.024902 -0.004713  0.071444 -0.007546  0.076880 -0.070516 -0.159562 -0.059245  0.025975
                                 0.227415  0.013043  0.098813  0.045346  0.106005  0.018786 -0.002792 -0.000000 -0.000000 -0.000001
                                -0.000002 -0.000006 -0.000014 -0.000033 -0.000079 -0.000193 -0.000476 -0.001180 -0.002824 -0.006266
                                 0.000162 -0.011694 -0.014984 -0.005102  0.029134  0.067989  0.030112 -0.088361 -0.093270 -0.107883
                                 0.116994 -0.193185  0.290844  0.131700  0.124351  0.077199  0.075510  0.039138  0.000552 -0.000001
                                 0.000000 -0.000009  0.000000 -0.000050  0.000000 -0.000228  0.000000 -0.000887  0.000000 -0.002767
                                 0.000000 -0.007170  0.000000 -0.014266  0.000000 -0.020690  0.000000 -0.014278 -0.000000  0.018871
                                 0.000000  0.056704 -0.000000 -0.001919  0.000000  0.065041 -0.000000  0.000008  0.000000 -0.001482
                                -0.000000 -0.087185  0.000000 -0.067351 -0.000000 -0.096714  0.000000 -0.076721 -0.000000  0.020915
                                 0.000000  0.003625 -0.000000  0.000011  0.000000  0.000103 -0.000000  0.000595  0.000000  0.002145
                                -0.000000  0.005820  0.000000  0.011304 -0.000000  0.015515  0.000000  0.014478 -0.000000  0.009384
                                 0.000000 -0.002631 -0.000000 -0.001083  0.000000 -0.019674 -0.000000  0.016074  0.000000 -0.013607
                                -0.000000  0.005625  0.000000 -0.002474  0.000166  0.000000 -0.004070 -0.000671 -0.000000 -0.000597
                                 0.001002  0.000000  0.000157  0.000897  0.004437  0.017467  0.055412  0.140715  0.177432 -0.577479
                                -0.147570 -0.375419 -0.017604 -0.009975 -0.093971  0.001427  0.015932  0.054431  0.126312  0.109025
                                 0.001920  0.000766  0.017159 -0.007054 -0.000000 -0.032832  0.000000 -0.000323 -0.000000 -0.019672
                                -0.000000  0.002546  0.000000  0.005621  0.000000

  18.1   2    -1.8339  -45.4369  0.000000  0.000000  0.000000  0.000000  0.000001  0.000001  0.000002  0.000004  0.000007  0.000013
                                 0.000023  0.000041  0.000073  0.000130  0.000239  0.000398  0.000686 -0.000158  0.000748 -0.000490
                                -0.002663 -0.005883  0.001342  0.001992  0.028563 -0.012845  0.008382 -0.094679  0.269083 -0.344361
                                 0.403898 -0.815994  0.654661  0.007257  0.052268  0.036808 -0.005760 -0.000000 -0.000000 -0.000000
                                -0.000001 -0.000001 -0.000003 -0.000008 -0.000019 -0.000046 -0.000114 -0.000284 -0.000673 -0.001535
                                 0.000153 -0.002935 -0.003503 -0.001371  0.007313  0.015783  0.008728 -0.026621  0.026747 -0.122888
                                 0.208823 -0.274307  0.234790 -0.128878  0.129770  0.093924 -0.032723  0.033312  0.005742 -0.000002
                                -0.000000 -0.000013 -0.000000 -0.000073 -0.000000 -0.000339 -0.000000 -0.001310 -0.000000 -0.004103
                                -0.000000 -0.010584 -0.000000 -0.021180 -0.000000 -0.030450 -0.000000 -0.021453 -0.000000  0.029535
                                 0.000000  0.078028  0.000000  0.031841 -0.000000  0.044725  0.000000  0.056591 -0.000000 -0.049583
                                 0.000000 -0.100550 -0.000000 -0.228236  0.000000 -0.043526 -0.000000 -0.171129 -0.000000 -0.038021
                                -0.000000  0.009037  0.000000  0.000008 -0.000000  0.000072  0.000000  0.000416  0.000000  0.001504
                                 0.000000  0.004079  0.000000  0.007924  0.000000  0.010766 -0.000000  0.010222  0.000000  0.000791
                                -0.000000  0.014807  0.000000 -0.029399 -0.000000 -0.008524  0.000000  0.027684 -0.000000 -0.014932
                                 0.000000 -0.005620 -0.000000 -0.000018  0.000875  0.000000 -0.012618 -0.001277  0.000000  0.003818
                                 0.001528  0.000000 -0.000061 -0.000350 -0.001730 -0.006829 -0.021640 -0.053506 -0.065208  0.225647
                                 0.070121  0.258990  0.001378  0.002650 -0.092476  0.006422  0.074667  0.263944  0.405808  0.105204
                                 0.008890  0.003441  0.010258 -0.019885  0.000000 -0.058902  0.000000 -0.000640  0.000000 -0.012110
                                 0.000000  0.005169 -0.000000  0.012938 -0.000000

  19.1   2    -1.6430  -61.8368  0.000000  0.000000  0.000000  0.000000  0.000000  0.000000  0.000000  0.000000  0.000000  0.000000
                                 0.000000  0.000000  0.000000  0.000000  0.000000  0.000000  0.000000 -0.000000  0.000000 -0.000000
                                -0.000000 -0.000000 -0.000000  0.000000 -0.000000  0.000000 -0.000000 -0.000000  0.000000 -0.000000
                                 0.000000 -0.000000  0.000000 -0.000000 -0.000000  0.000000 -0.000000 -0.000000  0.000000  0.000000
                                -0.000000  0.000000  0.000000  0.000000  0.000000  0.000000  0.000000  0.000000  0.000000  0.000000
                                -0.000000  0.000000  0.000000  0.000000 -0.000000 -0.000000 -0.000000  0.000000  0.000000 -0.000000
                                 0.000000 -0.000000  0.000000 -0.000000  0.000000 -0.000000  0.000000 -0.000000 -0.000000 -0.000000
                                 0.000004  0.000000  0.000022  0.000000  0.000124  0.000000  0.000570  0.000000  0.002215  0.000000
                                 0.006910  0.000000  0.017913  0.000000  0.035641  0.000000  0.051688  0.000000  0.035417  0.000000
                                -0.048246 -0.000000 -0.143313  0.000000  0.002490 -0.000000 -0.161033  0.000000 -0.000255 -0.000000
                                 0.005584  0.000000  0.291653 -0.000000 -0.008571  0.000000  0.465239 -0.000000  0.337239  0.000000
                                 0.067332  0.000000 -0.002127  0.000000 -0.000001  0.000000 -0.000005  0.000000 -0.000031  0.000000
                                -0.000108  0.000000 -0.000306  0.000000 -0.000557  0.000000 -0.000825  0.000000 -0.000607 -0.000000
                                -0.001658  0.000000  0.003786 -0.000000 -0.004918  0.000000  0.005700  0.000000 -0.000845 -0.000000
                                -0.000529  0.000000 -0.000261 -0.000000 -0.000000  0.001147 -0.000000 -0.000000 -0.002860  0.000000
                                 0.000000  0.006759 -0.000000 -0.000000 -0.000000 -0.000000 -0.000000 -0.000000 -0.000000  0.000000
                                 0.000000  0.000000 -0.000000  0.000000  0.000000  0.000000  0.000000  0.000000  0.000000  0.000000
                                 0.000000  0.000000 -0.000000 -0.000000  0.004263 -0.000000  0.014848  0.000000  0.000193 -0.000000
                                 0.005047 -0.000000 -0.003805  0.000000 -0.004816

  20.1   2    -1.3227  -45.3049 -0.000000 -0.000001 -0.000001 -0.000003 -0.000007 -0.000013 -0.000025 -0.000044 -0.000078 -0.000137
                                -0.000241 -0.000426 -0.000761 -0.001376 -0.002474 -0.004278 -0.006386 -0.000082 -0.006137  0.003430
                                 0.031105  0.054107  0.008726 -0.147109 -0.001581 -0.150383  0.142688  0.384034  0.080857 -0.031952
                                -0.488475 -0.224954 -0.315716  0.866039  0.333052 -0.015474  0.003644  0.000000  0.000000  0.000000
                                 0.000001  0.000002  0.000004  0.000011  0.000026  0.000063  0.000155  0.000385  0.000921  0.002045
                                -0.000053  0.003817  0.004891  0.001658 -0.009555 -0.022328 -0.009724  0.029025  0.038778  0.020197
                                -0.007884  0.031255 -0.090712 -0.049838 -0.100130  0.048264  0.128856  0.030235 -0.002159 -0.000002
                                -0.000000 -0.000009 -0.000000 -0.000052 -0.000000 -0.000240 -0.000000 -0.000934 -0.000000 -0.002908
                                -0.000000 -0.007553 -0.000000 -0.014990 -0.000000 -0.021821 -0.000000 -0.014770  0.000000  0.020103
                                -0.000000  0.061995  0.000000 -0.006371 -0.000000  0.074015  0.000000 -0.001736 -0.000000 -0.003497
                                 0.000000 -0.127115 -0.000000  0.015360  0.000000 -0.225621 -0.000000 -0.137674  0.000000 -0.020593
                                -0.000000  0.000032  0.000000 -0.000005 -0.000000 -0.000042  0.000000 -0.000252 -0.000000 -0.000875
                                 0.000000 -0.002463 -0.000000 -0.004571  0.000000 -0.006713 -0.000000 -0.004881  0.000000 -0.007275
                                -0.000000  0.009127  0.000000 -0.004642 -0.000000  0.009835  0.000000  0.005881 -0.000000  0.019189
                                 0.000000  0.013925 -0.000000  0.002851  0.001957 -0.000000 -0.001438 -0.000604  0.000000  0.001495
                                 0.000585 -0.000000  0.000008  0.000047  0.000231  0.000906  0.002937  0.008226  0.011239 -0.046502
                                -0.014596 -0.195961 -0.002440 -0.001006 -0.046096 -0.003896 -0.043332 -0.146688 -0.226199 -0.088633
                                -0.004234 -0.001814  0.008624 -0.005162  0.000000 -0.009572 -0.000000 -0.000308  0.000000  0.000390
                                 0.000000  0.004248 -0.000000  0.000602 -0.000000

  21.1   0    -0.7595  -37.1801  0.000000  0.000000  0.000000  0.000001  0.000001  0.000003  0.000005  0.000009  0.000016  0.000029
                                 0.000050  0.000089  0.000160  0.000288  0.000520  0.000890  0.001385 -0.000086  0.001386 -0.000820
                                -0.006324 -0.011772 -0.000490  0.023366  0.017849  0.014813 -0.016681 -0.112264  0.103086 -0.120491
                                 0.173929 -0.122698  0.239863 -0.109022 -0.394478 -0.003350 -0.006170  0.000000  0.000000  0.000001
                                 0.000002  0.000006  0.000013  0.000032  0.000077  0.000187  0.000463  0.001146  0.002755  0.006048
                                 0.000016  0.011186  0.014724  0.004713 -0.028052 -0.067537 -0.026809  0.079943  0.175120 -0.044896
                                 0.134621 -0.086893 -0.150656 -0.313702 -0.039097 -0.087541  0.568757  0.321215 -0.003354 -0.000001
                                 0.000000 -0.000007 -0.000000 -0.000037 -0.000000 -0.000172 -0.000000 -0.000671 -0.000000 -0.002078
                                -0.000000 -0.005428 -0.000000 -0.010698 -0.000000 -0.015745 -0.000000 -0.010315 -0.000000  0.013638
                                 0.000000  0.048878  0.000000 -0.028185 -0.000000  0.089167  0.000000 -0.039868 -0.000000  0.026616
                                 0.000000 -0.115144 -0.000000  0.070507  0.000000 -0.209143 -0.000000 -0.114862 -0.000000 -0.102735
                                -0.000000 -0.020850  0.000000 -0.000007 -0.000000 -0.000063 -0.000000 -0.000373 -0.000000 -0.001314
                                -0.000000 -0.003645 -0.000000 -0.006879 -0.000000 -0.009790 -0.000000 -0.007767 -0.000000 -0.009102
                                 0.000000  0.012410 -0.000000 -0.009969  0.000000  0.024860 -0.000000 -0.005418  0.000000  0.040369
                                -0.000000  0.027687  0.000000  0.002290  0.000311  0.000000  0.000168 -0.001168 -0.000000  0.001293
                                 0.000991  0.000000 -0.000020 -0.000116 -0.000570 -0.002267 -0.007060 -0.015720 -0.018488  0.102314
                                 0.013907 -0.064771 -0.003220 -0.000487 -0.115883 -0.003420 -0.037992 -0.128858 -0.218886 -0.113303
                                -0.003625 -0.001570  0.005521 -0.006590  0.000000 -0.013726  0.000000 -0.000390  0.000000 -0.019612
                                 0.000000  0.002998  0.000000  0.001983  0.000000

  22.1   0    -0.4796  -23.8034 -0.000000 -0.000000 -0.000000 -0.000001 -0.000001 -0.000002 -0.000004 -0.000007 -0.000013 -0.000023
                                -0.000041 -0.000071 -0.000129 -0.000230 -0.000420 -0.000708 -0.001162  0.000175 -0.001216  0.000761
                                 0.004898  0.009926 -0.000935 -0.011757 -0.031365  0.003974  0.001319  0.124239 -0.213655  0.252898
                                -0.289170  0.353787 -0.391530  0.753230 -0.171499 -0.843532  0.000104  0.000000  0.000000  0.000000
                                 0.000000  0.000000  0.000001  0.000001  0.000003  0.000008  0.000018  0.000047  0.000108  0.000261
                                -0.000066  0.000523  0.000534  0.000279 -0.001302 -0.002325 -0.002023  0.006420 -0.025469  0.060258
                                -0.101333  0.120447 -0.082650  0.074410 -0.142045  0.140506  0.086579 -0.723650 -0.265902 -0.000001
                                -0.000000 -0.000006 -0.000000 -0.000036 -0.000000 -0.000165 -0.000000 -0.000642 -0.000000 -0.001993
                                -0.000000 -0.005197 -0.000000 -0.010267 -0.000000 -0.015052 -0.000000 -0.009938 -0.000000  0.013449
                                 0.000000  0.045999 -0.000000 -0.022574  0.000000  0.080446 -0.000000 -0.036691  0.000000  0.025133
                                -0.000000 -0.114005  0.000000  0.061325 -0.000000 -0.203964  0.000000 -0.076870 -0.000000 -0.038935
                                 0.000000 -0.055273  0.000000 -0.000010 -0.000000 -0.000096 -0.000000 -0.000549 -0.000000 -0.002003
                                -0.000000 -0.005372 -0.000000 -0.010567 -0.000000 -0.014009 -0.000000 -0.013324 -0.000000 -0.002859
                                 0.000000 -0.003350 -0.000000  0.017764  0.000000  0.008572 -0.000000  0.037927  0.000000  0.050728
                                -0.000000  0.069082  0.000000  0.003779  0.000900 -0.000000 -0.003353 -0.001368  0.000000  0.007058
                                 0.000832 -0.000000 -0.000051 -0.000291 -0.001437 -0.005696 -0.017945 -0.042870 -0.053702  0.290383
                                 0.051392  0.229191 -0.001824  0.000753 -0.047701 -0.000582 -0.007441 -0.028932 -0.049675  0.136849
                                -0.001103 -0.000386  0.103358  0.000505  0.000000 -0.003307  0.000000 -0.000017  0.000000 -0.034465
                                 0.000000  0.000685 -0.000000 -0.000122 -0.000000

                                   1 2px     1 2px     1 2px     1 2px     1 2px     1 2px     1 2px     1 2px     1 2px     1 2px  
                                   1 2px     1 2px     1 2px     1 2px     1 2px     1 2px     1 2px     1 2px     1 2px     1 2px  
                                   1 2px     1 2px     1 2px     1 2px     1 2px     1 2px     1 2px     1 2px     1 2px     1 2px  
                                   1 2px     1 2px     1 3d1+    1 3d1+    1 3d1+    1 3d1+    1 3d1+    1 3d1+    1 3d1+    1 3d1+ 
                                   1 3d1+    1 3d1+    1 3d1+    1 3d1+    1 3d1+    1 3d1+    1 3d1+    1 3d1+    1 3d1+    1 3d1+ 
                                   1 3d1+    1 3d1+    1 3d1+    1 3d1+    1 4f1+    1 4f3+    1 4f1+    1 4f3+    1 4f1+    1 4f3+ 
                                   1 4f1+    1 4f3+    1 4f1+    1 4f3+    1 4f1+    1 4f3+    1 4f1+    1 4f3+    1 4f1+    1 4f3+ 
                                   1 4f1+    1 4f3+    1 4f1+    1 4f3+    1 4f1+    1 4f3+    1 4f1+    1 4f3+    1 4f1+    1 4f3+ 
                                   1 4f1+    1 4f3+    1 4f1+    1 4f3+    1 5g1+    1 5g3+    1 5g1+    1 5g3+    1 5g1+    1 5g3+ 
                                   2 2px     2 2px     2 2px     2 2px     2 2px     2 2px     2 2px     2 2px     2 3d1+    2 3d1+ 
                                   2 3d1+    2 3d1+    2 4f1+    2 4f3+    2 4f1+    2 4f3+ 

   1.2   2  -434.8250-1212.1711  0.000003  0.000008  0.000024  0.000062  0.000153  0.000367  0.000873  0.002085  0.005048  0.012348
                                 0.030033  0.070111  0.147675 -0.000314  0.257466  0.326980  0.249423  0.089027  0.009866  0.000453
                                -0.000267  0.000436 -0.000602  0.000419 -0.000283  0.000076 -0.000020  0.000014 -0.000005  0.000001
                                -0.000000  0.000000  0.000000  0.000000 -0.000000 -0.000000 -0.000000  0.000000  0.000003  0.000002
                                 0.000000 -0.000000 -0.000000 -0.000000  0.000000 -0.000000 -0.000000  0.000000  0.000000  0.000000
                                -0.000000 -0.000000  0.000000 -0.000000 -0.000000  0.000000 -0.000001  0.000001 -0.000002  0.000005
                                -0.000001  0.000003  0.000000 -0.000002  0.000001 -0.000003  0.000000 -0.000002  0.000000  0.000001
                                -0.000000  0.000000  0.000000  0.000001 -0.000001 -0.000000  0.000000  0.000001 -0.000000  0.000000
                                 0.000000  0.000000  0.000000 -0.000000 -0.000000 -0.000000  0.000000  0.000000 -0.000000 -0.000000
                                 0.000000  0.000000  0.000000  0.000000 -0.000000  0.000000  0.000000  0.000000 -0.000000 -0.000000
                                -0.000000  0.000000  0.000000  0.000000  0.000000  0.000000

   2.2   2  -100.9832 -436.1695 -0.000001 -0.000004 -0.000012 -0.000032 -0.000079 -0.000189 -0.000450 -0.001078 -0.002625 -0.006472
                                -0.015961 -0.038050 -0.083087  0.000806 -0.151983 -0.196313 -0.091911  0.227242  0.497330  0.337460
                                 0.075596  0.016668 -0.015151  0.013860 -0.009886  0.002919 -0.001005  0.000698 -0.000253  0.000029
                                -0.000007  0.000001  0.000000  0.000000  0.000000  0.000000  0.000000  0.000000 -0.000001  0.000006
                                 0.000016  0.000005  0.000017  0.000009  0.000015 -0.000020  0.000020 -0.000015  0.000006 -0.000013
                                 0.000010  0.000001  0.000004 -0.000001 -0.000000 -0.000000  0.000000  0.000000 -0.000000  0.000001
                                -0.000004 -0.000002 -0.000009 -0.000024 -0.000009  0.000009 -0.000004  0.000025 -0.000000 -0.000012
                                 0.000003 -0.000003 -0.000002 -0.000017  0.000004  0.000006 -0.000003 -0.000010  0.000003  0.000001
                                -0.000000 -0.000001  0.000001  0.000000  0.000002  0.000000 -0.000003 -0.000000  0.000002  0.000000
                                -0.000000 -0.000001 -0.000002 -0.000003 -0.000007 -0.000000 -0.000000  0.000001  0.000000  0.000002
                                 0.000000  0.000003 -0.000000 -0.000000 -0.000001 -0.000000

   3.2   2   -79.1601 -401.2589  0.000000  0.000000  0.000000  0.000000  0.000000  0.000000  0.000000  0.000000  0.000000  0.000000
                                 0.000001  0.000002  0.000005  0.000000  0.000009  0.000011  0.000002 -0.000012 -0.000049 -0.000020
                                 0.000038 -0.000021  0.000052 -0.000061  0.000045 -0.000024  0.000004 -0.000002 -0.000001 -0.000001
                                 0.000000  0.000000  0.000023  0.000139  0.000775  0.003570  0.013712  0.042422  0.107389  0.212873
                                 0.316990  0.314245  0.165428  0.039823 -0.003051  0.006419 -0.001694  0.001220 -0.000155  0.000225
                                -0.000141  0.000012 -0.000004  0.000001 -0.000000 -0.000000 -0.000000 -0.000000  0.000002 -0.000000
                                 0.000005 -0.000000 -0.000003 -0.000000  0.000003  0.000000  0.000004  0.000000  0.000003 -0.000000
                                -0.000004 -0.000000  0.000009 -0.000000 -0.000011  0.000000  0.000010 -0.000000 -0.000007  0.000000
                                 0.000002 -0.000000 -0.000001 -0.000000 -0.000006 -0.000010  0.000008  0.000010 -0.000004 -0.000004
                                 0.000000  0.000000 -0.000001  0.000001  0.000002 -0.000000 -0.000000 -0.000001  0.000000 -0.000002
                                -0.000000 -0.000001 -0.000000 -0.000000  0.000001  0.000000

   4.2   2   -21.5227 -189.6737  0.000001  0.000002  0.000006  0.000016  0.000039  0.000093  0.000222  0.000532  0.001296  0.003203
                                 0.007921  0.018992  0.041763 -0.000292  0.077242  0.100641  0.035803 -0.175839 -0.409365 -0.201682
                                 0.354622  0.580237 -0.004769  0.298264 -0.022777  0.045087 -0.002056  0.002643 -0.000910  0.000098
                                -0.000022  0.000006 -0.000000 -0.000000 -0.000000 -0.000001 -0.000002 -0.000007 -0.000016 -0.000036
                                -0.000057 -0.000042 -0.000007  0.000061 -0.000118  0.000252  0.000120  0.000273  0.000037  0.000059
                                -0.000077  0.000002  0.000021 -0.000002 -0.000000  0.000000 -0.000000 -0.000000 -0.000001  0.000000
                                -0.000002 -0.000003 -0.000010  0.000028 -0.000046  0.000095 -0.000085  0.000159 -0.000059 -0.000200
                                 0.000179 -0.000382 -0.000104  0.000301  0.000154 -0.000147 -0.000087  0.000150  0.000014 -0.000018
                                -0.000001  0.000019  0.000009 -0.000001  0.000072 -0.000002 -0.000074  0.000001  0.000015  0.000000
                                 0.000000  0.000005  0.000014  0.000032 -0.000036  0.000001  0.000000 -0.000001 -0.000006 -0.000010
                                 0.000000  0.000020  0.000013  0.000000 -0.000005 -0.000000

   5.2   2   -13.3696 -168.6214 -0.000000 -0.000000 -0.000000 -0.000000 -0.000000 -0.000000 -0.000000 -0.000001 -0.000001 -0.000003
                                -0.000008 -0.000019 -0.000041 -0.000000 -0.000075 -0.000098 -0.000031  0.000181  0.000446  0.000175
                                -0.000476 -0.001206  0.000457 -0.000787  0.001458 -0.000226  0.000311 -0.000152 -0.000229 -0.000138
                                -0.000022 -0.000005 -0.000011 -0.000071 -0.000396 -0.001829 -0.007080 -0.022093 -0.056968 -0.113553
                                -0.164695 -0.123667  0.108761  0.363970  0.028040  0.382877  0.027781  0.199068  0.045516 -0.006370
                                 0.005566 -0.000419  0.000017 -0.000028  0.000000  0.000000  0.000002  0.000000  0.000010  0.000000
                                 0.000040  0.000000  0.000116  0.000000  0.000214  0.000001  0.000269  0.000002  0.000430  0.000001
                                 0.000648 -0.000001 -0.000555 -0.000005  0.000470  0.000007 -0.000215 -0.000009 -0.000134  0.000009
                                -0.000027 -0.000007 -0.000029 -0.000001 -0.000088 -0.000602  0.000452  0.000732 -0.000238 -0.000191
                                 0.000000  0.000008  0.000019  0.000185  0.000166  0.000002  0.000001  0.000021 -0.000062 -0.000182
                                -0.000000 -0.000062  0.000093 -0.000002  0.000034  0.000016

   6.2   2    -4.3161 -141.6834 -0.000000 -0.000000 -0.000000 -0.000000 -0.000000 -0.000001 -0.000001 -0.000003 -0.000008 -0.000019
                                -0.000047 -0.000113 -0.000247 -0.000003 -0.000455 -0.000604 -0.000192  0.001125  0.002699  0.001071
                                -0.002827 -0.007260  0.003534 -0.009502  0.007484  0.000685  0.011918  0.002768  0.000392 -0.000312
                                 0.000050  0.000153  0.000000  0.000000  0.000000  0.000002  0.000008  0.000027  0.000065  0.000140
                                 0.000182  0.000188 -0.000251  0.000181 -0.003706  0.005206 -0.006724  0.005425 -0.004265  0.010256
                                -0.007951 -0.000916 -0.000159  0.000115  0.000161  0.000145  0.001500  0.001354  0.008550  0.007717
                                 0.031159  0.028130  0.083561  0.075426  0.165221  0.149159  0.226630  0.204512  0.230992  0.208602
[...]
                                   1 3d2-    1 3d2-    1 4f2-    1 4f2-    1 4f2-    1 4f2-    1 4f2-    1 4f2-    1 4f2-    1 4f2- 
                                   1 4f2-    1 4f2-    1 4f2-    1 4f2-    1 4f2-    1 4f2-    1 4f2-    1 5g2-    1 5g4-    1 5g2- 
                                   1 5g4-    1 5g2-    1 5g4-    2 3d2-    2 3d2-    2 3d2-    2 3d2-    2 4f2-    2 4f2- 

   1.4   2   -79.1600 -401.2430  0.000023  0.000139  0.000775  0.003569  0.013710  0.042416  0.107371  0.212841  0.316953  0.314284
                                 0.165485  0.039793 -0.002954  0.006316 -0.001619  0.001183 -0.000139  0.000203 -0.000125  0.000011
                                -0.000003  0.000001 -0.000000 -0.000000  0.000003  0.000008  0.000001  0.000003  0.000000  0.000001
                                 0.000001  0.000002 -0.000001  0.000002 -0.000000  0.000000 -0.000000 -0.000004 -0.000000  0.000005
                                 0.000000 -0.000002 -0.000000  0.000000  0.000000  0.000000  0.000000 -0.000000 -0.000000

   2.4   2   -13.3650 -168.4954 -0.000011 -0.000071 -0.000395 -0.001827 -0.007073 -0.022072 -0.056911 -0.113442 -0.164533 -0.123604
                                 0.108458  0.363438  0.027689  0.383119  0.027992  0.199725  0.045809 -0.007269  0.006238 -0.000315
                                 0.000087 -0.000020  0.000000  0.000001  0.000001  0.000008  0.000027  0.000045  0.000055  0.000203
                                 0.000392 -0.000222  0.000121 -0.000087  0.000011 -0.000030  0.000006 -0.000060 -0.000000  0.000215
                                 0.000000 -0.000071 -0.000000  0.000012  0.000036  0.000000 -0.000005 -0.000026 -0.000010

   3.4   2    -4.3163 -141.7813  0.000000  0.000000  0.000000  0.000002  0.000007  0.000021  0.000055  0.000111  0.000160  0.000118
                                -0.000169 -0.000348 -0.000548  0.000361 -0.000949  0.001076  0.000180 -0.000261  0.000334 -0.000057
                                 0.000164  0.000004  0.000217  0.002022  0.011525  0.042010  0.112644  0.222744  0.305426  0.311623
                                 0.223390  0.006271  0.095289  0.003191  0.016734 -0.001735  0.000619  0.001528  0.000000 -0.001367
                                -0.000000  0.000803  0.000000  0.000402  0.001025  0.000013 -0.000233 -0.000678 -0.000071

   4.4   0    -1.0896  -58.2497  0.000003  0.000020  0.000114  0.000528  0.002048  0.006397  0.016559  0.032999  0.047750  0.033030
                                -0.044760 -0.129292 -0.012354 -0.126192 -0.024077  0.019665  0.248018  0.018670  0.401396  0.367986
                                 0.129930  0.002611 -0.000001 -0.000006 -0.000034 -0.000118 -0.000337 -0.000608 -0.000917 -0.000641
                                -0.001959  0.004340 -0.005934  0.006793 -0.001495 -0.000908 -0.001187  0.002202 -0.000000 -0.004411
                                 0.000000  0.008227 -0.000000  0.004954  0.018544  0.000233  0.010552 -0.003891 -0.006431

   5.4   0    -0.3807  -21.3710 -0.000001 -0.000007 -0.000038 -0.000174 -0.000689 -0.002110 -0.005584 -0.010832 -0.016328 -0.009922
                                 0.012197  0.060337 -0.085224  0.178623 -0.137902  0.100518 -0.159351  0.149979 -0.290284 -0.091744
                                 0.082974  0.921800 -0.000001 -0.000010 -0.000042 -0.000209 -0.000405 -0.001170 -0.000725 -0.002802
                                 0.009930 -0.026447  0.044350 -0.046399  0.046047 -0.028612  0.018831 -0.000374 -0.000000  0.001268
                                 0.000000 -0.002112 -0.000000  0.003361  0.011764  0.000154  0.061997  0.001081 -0.005232

 HOMO     20.1    -1.322694 =     -35.9923eV
 LUMO      4.4    -1.089605 =     -29.6497eV
 LUMO-HOMO         0.233089 =       6.3427eV


 **********************************************************************************************************************************
 DATASETS  * FILE   NREC   LENGTH (MB)   RECORD NAMES
              1      22       23.93       500      610      700      900      950      970     1000      129      960     1700   
                                          VAR    BASINP    GEOM    SYMINP    ZMAT    AOBASIS   BASIS     P2S    ABASIS    OPER   
                                         1101     1401     1411     1412     1650     1100     1400     1410     1200     1210   
                                          SR      EKINR    POTR     PVPR    MOLCAS      S      EKIN      POT      H0       H01  
                                         1080     1600   
                                         AOSYM     SMH  

              2       4        4.02       700     1000      520     2100   
                                         GEOM     BASIS   MCVARS     RHF  

 PROGRAMS   *        TOTAL       RHF       INT
 CPU TIMES  *       196.03      7.31    188.04
 REAL TIME  *       214.22 SEC
 DISK USED  *        11.61 GB      
 SF USED    *         0.24 MB      
 GA USED    *         0.00 MB       (max)       0.00 MB       (current)
 **********************************************************************************************************************************


 PROGRAM * RHF-SCF (OPEN SHELL)       Authors: W. Meyer, H.-J. Werner


 NUMBER OF ELECTRONS:      44+   41-    SPACE SYMMETRY=1    SPIN SYMMETRY: Quartet 
 CONVERGENCE THRESHOLDS:    1.00E-05 (Density)    1.64E-07 (Energy)
 MAX. NUMBER OF ITERATIONS:       60
 INTERPOLATION TYPE:            DIIS
 INTERPOLATION STEPS:              2 (START)      1 (STEP)
 LEVEL SHIFTS:                 -0.60 (CLOSED) -0.30 (OPEN) 

 Number of closed-shell orbitals:   41 (  20   9   9   3 )
 Number of open-shell orbitals:      3 (   0   1   1   1 )


 Molecular orbitals read from record     2100.2  Type=RHF/CANONICAL (state 1.1)

 Molecular orbital dump at record        2101.2

 ITERATION    DDIFF          GRAD             ENERGY        2-EL.EN.            DIPOLE MOMENTS         DIIS   ORB.
    1      0.000D+00      0.000D+00    -17901.04667165  13902.669970    0.00000    0.00000   -0.82441    0    start
    2      0.000D+00      0.953D-02    -17901.37698833  13762.105778    0.00000    0.00000   -0.64742    1    diag,B
    3      0.186D-01      0.863D-02    -17901.44149182  13803.808124    0.00000    0.00000   -0.67611    2    diag,B
    4      0.656D-02      0.180D-02    -17901.45919592  13801.661339    0.00000    0.00000   -0.65577    3    diag,B
    5      0.514D-02      0.856D-03    -17901.47260464  13797.599950    0.00000    0.00000   -0.53360    4    diag,B
    6      0.429D-02      0.522D-03    -17901.47896510  13795.683541    0.00000    0.00000   -0.43864    5    diag,B
    7      0.184D-02      0.316D-03    -17901.48229144  13794.846882    0.00000    0.00000   -0.29641    6    diag,B
    8      0.165D-02      0.185D-03    -17901.48342525  13793.966264    0.00000    0.00000   -0.21314    7    orth
    9      0.142D-02      0.914D-04    -17901.48377492  13793.972425    0.00000    0.00000   -0.15029    8    diag,B
   10      0.661D-03      0.445D-04    -17901.48386233  13794.005849    0.00000    0.00000   -0.12922    9    diag,B
   11      0.397D-03      0.195D-04    -17901.48387998  13794.052954    0.00000    0.00000   -0.12007    9    diag,B
   12      0.368D-03      0.835D-05    -17901.48388277  13794.077365    0.00000    0.00000   -0.11918    9    diag,B
   13      0.133D-03      0.403D-05    -17901.48388340  13794.085984    0.00000    0.00000   -0.11859    9    diag,B
   14      0.248D-04      0.149D-05    -17901.48388349  13794.089660    0.00000    0.00000   -0.11854    9    diag,B
   15      0.206D-04      0.703D-06    -17901.48388351  13794.092101    0.00000    0.00000   -0.11860    9    diag,B
   16      0.150D-04      0.268D-06    -17901.48388351  13794.092761    0.00000    0.00000   -0.11859    9    diag,B
   17      0.561D-05      0.103D-06    -17901.48388351  13794.093020    0.00000    0.00000   -0.11859    0    orth

 Final alpha occupancy:  20  10  10   4
 Final beta  occupancy:  20   9   9   3

 !RHF STATE 1.1 Energy               -17901.4838835100    
 Nuclear energy                       250.74858610
 One-electron energy               -25049.27897974
 Two-electron energy                 6897.04651013
 Virial quotient                       -0.67987393
 !RHF STATE 1.1 Dipole moment           0.00000000     0.00000000    -0.11859223
 Dipole moment /Debye                   0.00000000     0.00000000    -0.30141164

 Orbital energies:

         1.1          2.1          3.1          4.1          5.1          6.1          7.1          8.1          9.1         10.1
  -2813.257362  -497.559706  -433.601067  -118.852145   -99.766655   -77.944951   -77.941744   -26.700106   -20.692358   -20.316864

        11.1         12.1         13.1         14.1         15.1         16.1         17.1         18.1         19.1         20.1
    -12.166752   -12.153786    -4.344695    -3.115490    -3.096403    -2.707510    -1.360895    -0.747386    -0.503525    -0.323547

        21.1         22.1
      0.027312     0.053771

         1.2          2.2          3.2          4.2          5.2          6.2          7.2          8.2          9.2         10.2
   -433.599344   -99.758977   -77.943542   -20.299631   -12.161259    -3.107420    -3.086188    -2.549804    -0.801036    -0.363234

        11.2         12.2
      0.057168     0.172236

         1.3          2.3          3.3          4.3          5.3          6.3          7.3          8.3          9.3         10.3
   -433.599344   -99.758977   -77.943542   -20.299631   -12.161259    -3.107420    -3.086188    -2.549804    -0.801036    -0.363234

        11.3         12.3
      0.057168     0.172236

         1.4          2.4          3.4          4.4          5.4          6.4
    -77.937763   -12.146462    -3.098880    -0.558717     0.193548     0.546169

 HOMO     20.1    -0.323547 =      -8.8042eV
 LUMO     21.1     0.027312 =       0.7432eV
 LUMO-HOMO         0.350859 =       9.5474eV


 **********************************************************************************************************************************
 DATASETS  * FILE   NREC   LENGTH (MB)   RECORD NAMES
              1      22       23.93       500      610      700      900      950      970     1000      129      960     1700   
                                          VAR    BASINP    GEOM    SYMINP    ZMAT    AOBASIS   BASIS     P2S    ABASIS    OPER   
                                         1101     1401     1411     1412     1650     1100     1400     1410     1200     1210   
                                          SR      EKINR    POTR     PVPR    MOLCAS      S      EKIN      POT      H0       H01  
                                         1080     1600   
                                         AOSYM     SMH  

              2       5        9.37       700     1000      520     2100     2101   
                                         GEOM     BASIS   MCVARS     RHF      RHF  

 PROGRAMS   *        TOTAL       RHF       RHF       INT
 CPU TIMES  *       205.88      9.85      7.31    188.04
 REAL TIME  *       224.94 SEC
 DISK USED  *        11.72 GB      
 SF USED    *         0.24 MB      
 GA USED    *         0.00 MB       (max)       0.00 MB       (current)
 **********************************************************************************************************************************
 SETTING SCF(1)         =    -17901.48388351  AU                              
 SETTING _CC_NORM_MAX   =         2.00000000                                  


 PROGRAM * CCSD (Restricted open-shell coupled cluster)     Authors: C. Hampel, H.-J. Werner, 1991, M. Deegan, P.J. Knowles, 1992


 Convergence thresholds:  THRVAR = 1.00D-08  THRDEN = 1.70D-06

 CCSD(T)     terms to be evaluated (factor= 1.000)


 Number of closed-shell orbitals:  41 (  20   9   9   3 )
 Number of active  orbitals:        3 (   0   1   1   1 )
 Number of external orbitals:     402 ( 165  96  96  45 )

 For full I/O caching in triples, increase memory by 261.06 Mwords to 1285.34 Mwords.

 Number of N-1 electron functions:              85
 Number of N-2 electron functions:            3570
 Number of singly external CSFs:             10608
 Number of doubly external CSFs:         112813020
 Total number of CSFs:                   112823628

 Molecular orbitals read from record     2101.2  Type=RHF/CANONICAL (state 1.1)

 Integral transformation finished. Total CPU:  56.35 sec, npass=  1  Memory used: 140.45 MW

 Starting RMP2 calculation

 Wavefunction is spin-projected

 ITER.      SQ.NORM     CORR.ENERGY   TOTAL ENERGY   ENERGY CHANGE        DEN1      VAR(S)    VAR(P)  DIIS     TIME
   1      1.26080882    -3.72366550-17905.20754901    -3.72366550    -0.00199077  0.20D-04  0.92D-03  1  1    79.70
   2      1.26309014    -3.72577105-17905.20965456    -0.00210555    -0.00001332  0.16D-06  0.10D-04  2  2   105.11
   3      1.26330967    -3.72588664-17905.20977015    -0.00011559    -0.00000011  0.96D-09  0.89D-07  3  3   134.55
   4      1.26331927    -3.72588826-17905.20977177    -0.00000162    -0.00000000  0.87D-11  0.56D-09  4  4   166.52

 Norm of t1 vector:      0.05471951      S-energy:    -0.00771672      T1 diagnostic:  0.00012762
 Norm of t2 vector:      0.51022059      P-energy:    -3.71817154
                                         Alpha-Beta:  -2.40219733
                                         Alpha-Alpha: -0.68379739
                                         Beta-Beta:   -0.63217682

 Spin contamination <S**2-Sz**2-Sz>     0.00000000
  Reference energy                   -17901.4838835101    
  RHF-RMP2 correlation energy          -3.725888257422
 !RHF-RMP2 energy                    -17905.2097717675    
 (NB above energy spin projected)

 Starting RCCSD calculation

 ITER.      SQ.NORM     CORR.ENERGY   TOTAL ENERGY   ENERGY CHANGE        DEN1      VAR(S)    VAR(P)  DIIS     TIME
   1      1.19130564    -3.30342229-17904.78730580    -3.30342229    -0.14364776  0.91D-02  0.12D-01  0  0   512.12
   2      1.21909324    -3.43538104-17904.91926455    -0.13195875    -0.01595769  0.67D-03  0.21D-02  0  0   857.08
   3      1.21685553    -3.39616600-17904.88004951     0.03921504    -0.00257061  0.54D-03  0.25D-03  1  1  1216.27
   4      1.22029701    -3.40747948-17904.89136299    -0.01131348    -0.00010424  0.62D-04  0.26D-04  2  2  1566.34
   5      1.22216050    -3.40808797-17904.89197148    -0.00060848    -0.00002833  0.21D-04  0.57D-05  3  3  1902.43
   6      1.22406600    -3.40861829-17904.89250180    -0.00053032    -0.00000236  0.20D-05  0.47D-06  4  4  2253.85
   7      1.22423462    -3.40859683-17904.89248034     0.00002146    -0.00000065  0.52D-06  0.14D-06  5  5  2591.98
   8      1.22435111    -3.40858972-17904.89247323     0.00000711    -0.00000009  0.67D-07  0.18D-07  6  6  2925.53
   9      1.22434325    -3.40858376-17904.89246727     0.00000596    -0.00000001  0.91D-08  0.29D-08  6  3  3265.44
  10      1.22434795    -3.40858474-17904.89246825    -0.00000098    -0.00000000  0.20D-08  0.73D-09  6  1  3597.70

 Norm of t1 vector:      0.13028285      S-energy:    -0.00721238      T1 diagnostic:  0.00899034
                                                                       D1 diagnostic:  0.04975117
 Norm of t2 vector:      0.45538372      P-energy:    -3.40137236
                                         Alpha-Beta:  -2.25759776
                                         Alpha-Alpha: -0.59365299
                                         Beta-Beta:   -0.55012160

 Spin contamination <S**2-Sz**2-Sz>     0.00000000

 For full I/O caching in triples, increase memory by 429.19 Mwords to 1453.47 Mwords.
 

  Correlated core orbitals:             1.1       2.1       3.1       4.1       5.1       6.1       7.1       8.1       9.1      10.1
                                       11.1      12.1      13.1      14.1      15.1      16.1       1.2       2.2       3.2       4.2
                                        5.2       6.2       7.2       8.2       1.3       2.3       3.3       4.3       5.3       6.3
                                        7.3       8.3       1.4       2.4       3.4
  Orbital energies:                 -2813.2578 -497.5650 -433.6060 -118.8549  -99.7694  -77.9470  -77.9437  -26.7089  -20.7008  -20.3245
                                      -12.1710  -12.1581   -4.4019   -3.1215   -3.1058   -2.7658 -433.6054  -99.7624  -77.9509  -20.3093
                                      -12.1766   -3.1165   -3.0958   -2.6350 -433.6054  -99.7624  -77.9509  -20.3093  -12.1766   -3.1165
                                       -3.0958   -2.6350  -77.9474  -12.1673   -3.1137
 
  RCCSD core-core energy               -2.533106382471
  RCCSD core-valence energy            -0.370356264115
  RCCSD valence correlation energy     -0.505122092594
 

 RESULTS
 =======

  Reference energy                   -17901.4838835101    
  RCCSD singles energy                 -0.007212383303
  RCCSD pair energy                    -3.401372355878
  RCCSD correlation energy             -3.408584739181
  Triples (T) contribution             -0.057815221694
  Total correlation energy             -3.466399960875
 
  RHF-RCCSD energy                   -17904.8924682493    
  RHF-RCCSD[T] energy                -17904.9535856873    
  RHF-RCCSD-T energy                 -17904.9497006957    
 !RHF-RCCSD(T) energy                -17904.9502834710    

 Program statistics:

 Available memory in ccsd:              1023983972
 Min. memory needed in ccsd:             308465420
 Max. memory used in ccsd:               456076551
 Max. memory used in cckext:             376073888 (10 integral passes)
 Max. memory used in cckint:             140449433 ( 1 integral passes)



 **********************************************************************************************************************************
 DATASETS  * FILE   NREC   LENGTH (MB)   RECORD NAMES
              1      22       23.93       500      610      700      900      950      970     1000      129      960     1700   
                                          VAR    BASINP    GEOM    SYMINP    ZMAT    AOBASIS   BASIS     P2S    ABASIS    OPER   
                                         1101     1401     1411     1412     1650     1100     1400     1410     1200     1210   
                                          SR      EKINR    POTR     PVPR    MOLCAS      S      EKIN      POT      H0       H01  
                                         1080     1600   
                                         AOSYM     SMH  

              2       5        9.37       700     1000      520     2100     2101   
                                         GEOM     BASIS   MCVARS     RHF      RHF  

 PROGRAMS   *        TOTAL  RCCSD(T)       RHF       RHF       INT
 CPU TIMES  *     12852.70  12646.79      9.85      7.31    188.04
 REAL TIME  *     14726.62 SEC
 DISK USED  *       169.98 GB      
 SF USED    *        30.11 GB      
 GA USED    *         0.00 MB       (max)       0.00 MB       (current)
 **********************************************************************************************************************************
 SETTING CCSD(1)        =    -17904.95028347  AU                              
 Output type csv         
                                                                                                                                                                                                                                                                

     Z,SCF  ,CCSD
   1.3,   -17901.48388,   -17904.95028
                                                  

 RCCSD(T)/USERDEF energy= -17904.950283470971

        RCCSD(T)        RHF-SCF         RHF-SCF 
 -17904.95028347 -17901.48388351 -17899.39163395
 **********************************************************************************************************************************
 Molpro calculation terminated
 Variable memory released
