
 Primary working directories    : /global/cscratch1/sd/mcbennet
 Secondary working directories  : /global/cscratch1/sd/mcbennet
 Wavefunction directory         : /global/homes/m/mcbennet/wfu/
 Main file repository           : /global/cscratch1/sd/mcbennet/

 SHA1      : 19cd028119e0e09f93f0674bd8af7968d9b3eff6
 NAME      : 2015.1.36
 ARCHNAME  : linux/x86_64
 FC        : /opt/cray/pe/craype/2.5.14/bin/ftn
 BLASLIB   : -L/opt/intel/compilers_and_libraries_2018.1.163/linux/mkl/lib/intel64 -Wl,-_start-group -lmkl_intel_ilp64 -lmkl_intel_thread -lmkl_core -Wl,-_end-group -liomp5
 id        : lbl

 Nodes     nprocs
 nid00874    15
 Number of processes for MPI-2 version of Molpro:   nprocs(total)=   16   nprocs(compute)=   15   nprocs(helper)=    1

 Using customized tuning parameters: mindgm=7; mindgv=16; mindgc=1; mindgr=1; noblas=0; minvec=7
 default implementation of scratch files=sf  

 ***,Calculation for Te atom
 memory,512,m
 GTHRESH,THROVL=1.0D-9
 geometry={
 1
 Te
 Te  0.0 0.0 0.0
 }
 
 basis={
 Including file /global/cscratch1/sd/mcbennet/Repos/Heavy_PPs/Te/01_SRL/02_Stuttgart_PPs/01_46MDF/molpro/atoms/aug-cc-pwcvqz-dk3_unc_mod/pp.molpro
 
 Including file /global/cscratch1/sd/mcbennet/Repos/Heavy_PPs/Te/01_SRL/02_Stuttgart_PPs/01_46MDF/molpro/atoms/aug-cc-pwcvqz-dk3_unc_mod/Te.aug-cc-pwcvqz-dk3.1.unc.mod.mpro
 }
 
 Including file /global/cscratch1/sd/mcbennet/Repos/Heavy_PPs/Te/01_SRL/02_Stuttgart_PPs/01_46MDF/molpro/atoms/aug-cc-pwcvqz-dk3_unc_mod/states.proc
 
 do i=1,10
 if (i.eq.1) then
     Is25p4
 else if (i.eq.2) then
     Is25p36s
 else if (i.eq.3) then
     Os2p5
 else if (i.eq.4) then
     IIs25p3
 else if (i.eq.5) then
     Is15p4
 else if (i.eq.6) then
     IIs15p35d1
 else if (i.eq.7) then
     IIIs25p2
 else if (i.eq.8) then
     IVs25p1
 else if (i.eq.9) then
     Vs2
 else if (i.eq.10) then
     IVs25d1
 endif
     scf(i)=energy
     _CC_NORM_MAX=2.0
     {rccsd(t),maxit=100;core}
     ccsd(i)=energy
 enddo
 
 table,scf,ccsd
 type,csv
 save

 Variables initialized (889), CPU time= 0.01 sec
 Commands  initialized (702), CPU time= 0.00 sec, 572 directives.
 Default parameters read. Elapsed time= 0.13 sec

 Checking input...
 Passed
1


                                         ***  PROGRAM SYSTEM MOLPRO  ***
                                       Copyright, TTI GmbH Stuttgart, 2015
                                    Version 2015.1 linked Dec 29 2018 15:55:43


 **********************************************************************************************************************************
 LABEL *   Calculation for Te atom                                                       
  64 bit mpp version                                                                     DATE: 01-Oct-21          TIME: 09:10:52  
 **********************************************************************************************************************************

 SHA1:             19cd028119e0e09f93f0674bd8af7968d9b3eff6
 **********************************************************************************************************************************

 THRESHOLDS:

 ZERO    =  1.00D-12  ONEINT  =  1.00D-12  TWOINT  =  1.00D-11  PREFAC  =  1.00D-14  LOCALI  =  1.00D-09  EORDER  =  1.00D-04
 ENERGY  =  0.00D+00  ETEST   =  0.00D+00  EDENS   =  0.00D+00  THRDEDEF=  1.00D-06  GRADIENT=  1.00D-02  STEP    =  1.00D-03
 ORBITAL =  1.00D-05  CIVEC   =  1.00D-05  COEFF   =  1.00D-04  PRINTCI =  5.00D-02  PUNCHCI =  9.90D+01  OPTGRAD =  3.00D-04
 OPTENERG=  1.00D-06  OPTSTEP =  3.00D-04  THRGRAD =  1.00D-10  COMPRESS=  1.00D-11  VARMIN  =  1.00D-07  VARMAX  =  1.00D-03
 THRDOUB =  0.00D+00  THRDIV  =  1.00D-05  THRRED  =  1.00D-07  THRPSP  =  1.00D+00  THRDC   =  1.00D-10  THRCS   =  1.00D-10
 THRNRM  =  1.00D-08  THREQ   =  0.00D+00  THRDE   =  1.00D+00  THRREF  =  1.00D-05  SPARFAC =  1.00D+00  THRDLP  =  1.00D-07
 THRDIA  =  1.00D-10  THRDLS  =  1.00D-07  THRGPS  =  0.00D+00  THRKEX  =  0.00D+00  THRDIS  =  2.00D-01  THRVAR  =  1.00D-10
 THRLOC  =  1.00D-06  THRGAP  =  1.00D-06  THRLOCT = -1.00D+00  THRGAPT = -1.00D+00  THRORB  =  1.00D-06  THRMLTP =  0.00D+00
 THRCPQCI=  1.00D-10  KEXTA   =  0.00D+00  THRCOARS=  0.00D+00  SYMTOL  =  1.00D-06  GRADTOL =  1.00D-06  THROVL  =  1.00D-09
 THRORTH =  1.00D-08  GRID    =  1.00D-06  GRIDMAX =  1.00D-03  DTMAX   =  0.00D+00  THROCCDE=  1.00D-01  THROCCDE=  1.00D-01



Geometry recognized as XYZ


 Variable memory set to  512000000 words,  buffer space   230000 words

 SETTING BASIS          =    USERDEF

 DO I                   =         1.00000000   

 Running procedure=IS25P4


 Recomputing integrals since basis changed


 Using spherical harmonics



 PROGRAM * SEWARD (Integral evaluation for generally contracted gaussian basis sets)     Author: Roland Lindh, 1990

 Geometry written to block  1 of record 700

 Orientation using atomic masses  
 Molecule type: Atom
 Symmetry elements: X,Y,Z
 Rotational constants:       0.0000000      0.0000000      0.0000000 GHz  (calculated with average atomic masses)

 Point group  D2h 



 ATOMIC COORDINATES

 NR  ATOM    CHARGE       X              Y              Z

   1  TE      6.00    0.000000000    0.000000000    0.000000000

 NUCLEAR CHARGE:                    6
 NUMBER OF PRIMITIVE AOS:         362
 NUMBER OF SYMMETRY AOS:          291
 NUMBER OF CONTRACTIONS:          291   (  82Ag  +  40B3u +  40B2u +  27B1g +  40B1u +  27B2g +  27B3g +   8Au  )
 NUMBER OF CORE ORBITALS:           0   (   0Ag  +   0B3u +   0B2u +   0B1g +   0B1u +   0B2g +   0B3g +   0Au  )
 NUMBER OF VALENCE ORBITALS:        4   (   1Ag  +   1B3u +   1B2u +   0B1g +   1B1u +   0B2g +   0B3g +   0Au  )


 NUCLEAR REPULSION ENERGY    0.00000000

 EXTRA SYMMETRY OF AOS IN SYMMETRY 1:   1 1 1 1 1 1 1 1 1 1   1 1 1 1 1 1 1 1 1 1   1 1 1 1 1 1 1 1 1 1   1 1 2 3 2 3 2 3 2 3
                                        2 3 2 3 2 3 2 3 2 3   2 3 2 3 2 3 2 3 2 3   2 3 2 3 2 3 2 3 2 3   4 5 6 4 5 6 4 5 6 4
                                        5 6
 EXTRA SYMMETRY OF AOS IN SYMMETRY 2:   1 1 1 1 1 1 1 1 1 1   1 1 1 1 1 1 1 1 1 1   1 1 1 1 1 2 3 2 3 2   3 2 3 2 3 2 3 4 5 6
 EXTRA SYMMETRY OF AOS IN SYMMETRY 3:   1 1 1 1 1 1 1 1 1 1   1 1 1 1 1 1 1 1 1 1   1 1 1 1 1 2 3 2 3 2   3 2 3 2 3 2 3 4 5 6
 EXTRA SYMMETRY OF AOS IN SYMMETRY 4:   1 1 1 1 1 1 1 1 1 1   1 1 1 1 1 1 1 1 1 2   3 2 3 2 3 2 3
 EXTRA SYMMETRY OF AOS IN SYMMETRY 5:   1 1 1 1 1 1 1 1 1 1   1 1 1 1 1 1 1 1 1 1   1 1 1 1 1 2 3 2 3 2   3 2 3 2 3 2 3 4 5 6
 EXTRA SYMMETRY OF AOS IN SYMMETRY 6:   1 1 1 1 1 1 1 1 1 1   1 1 1 1 1 1 1 1 1 2   3 2 3 2 3 2 3
 EXTRA SYMMETRY OF AOS IN SYMMETRY 7:   1 1 1 1 1 1 1 1 1 1   1 1 1 1 1 1 1 1 1 2   3 2 3 2 3 2 3
 EXTRA SYMMETRY OF AOS IN SYMMETRY 8:   1 1 1 1 1 1 2 3

 Eigenvalues of metric

         1 0.114E-04 0.590E-04 0.144E-03 0.240E-03 0.402E-03 0.601E-03 0.601E-03 0.714E-03
         2 0.196E-03 0.768E-03 0.199E-02 0.427E-02 0.812E-02 0.141E-01 0.233E-01 0.375E-01
         3 0.196E-03 0.768E-03 0.199E-02 0.427E-02 0.812E-02 0.141E-01 0.233E-01 0.375E-01
         4 0.601E-03 0.214E-02 0.472E-02 0.916E-02 0.188E-01 0.374E-01 0.682E-01 0.117E+00
         5 0.196E-03 0.768E-03 0.199E-02 0.427E-02 0.812E-02 0.141E-01 0.233E-01 0.375E-01
         6 0.601E-03 0.214E-02 0.472E-02 0.916E-02 0.188E-01 0.374E-01 0.682E-01 0.117E+00
         7 0.601E-03 0.214E-02 0.472E-02 0.916E-02 0.188E-01 0.374E-01 0.682E-01 0.117E+00
         8 0.619E-01 0.169E+00 0.446E+00 0.980E+00 0.100E+01 0.100E+01 0.179E+01 0.255E+01


 Contracted 2-electron integrals neglected if value below      1.0D-12
 AO integral compression algorithm  1   Integral accuracy      1.0D-12

     553.124 MB (compressed) written to integral file ( 32.9%)

     Node minimum: 12.059 MB, node maximum: 74.449 MB


 NUMBER OF SORTED TWO-ELECTRON INTEGRALS:    7809963.     BUFFER LENGTH:  32768
 NUMBER OF SEGMENTS:   1  SEGMENT LENGTH:    7809963      RECORD LENGTH: 524288

 Memory used in sort:       8.37 MW

 SORT1 READ   210339881. AND WROTE     4182596. INTEGRALS IN     12 RECORDS. CPU TIME:     4.44 SEC, REAL TIME:     4.63 SEC
 SORT2 READ    61971172. AND WROTE   117403651. INTEGRALS IN   1080 RECORDS. CPU TIME:     0.35 SEC, REAL TIME:     0.48 SEC

 Node minimum:     7757214.  Node maximum:     7925223. integrals

 OPERATOR DM      FOR CENTER  0  COORDINATES:    0.000000    0.000000    0.000000


 **********************************************************************************************************************************
 DATASETS  * FILE   NREC   LENGTH (MB)   RECORD NAMES
              1      19       20.55       500      610      700      900      950      970     1000      129      960     1100   
                                          VAR    BASINP    GEOM    SYMINP    ZMAT    AOBASIS   BASIS     P2S    ABASIS      S 
                                         1400     1410     1420     1200     1210     1080     1600     1650     1700   
                                           T        V       ECP      H0       H01     AOSYM     SMH    MOLCAS    OPER   

 PROGRAMS   *        TOTAL       INT
 CPU TIMES  *        43.69     43.22
 REAL TIME  *        46.68 SEC
 DISK USED  *         1.29 GB      
 GA USED    *         0.00 MB       (max)       0.00 MB       (current)
 **********************************************************************************************************************************


 PROGRAM * RHF-SCF (OPEN SHELL)       Authors: W. Meyer, H.-J. Werner


 NUMBER OF ELECTRONS:       4+    2-    SPACE SYMMETRY=4    SPIN SYMMETRY: Triplet 
 CONVERGENCE THRESHOLDS:    1.00E-05 (Density)    1.00E-07 (Energy)
 MAX. NUMBER OF ITERATIONS:       60
 INTERPOLATION TYPE:            DIIS
 INTERPOLATION STEPS:              2 (START)      1 (STEP)
 LEVEL SHIFTS:                 -0.60 (CLOSED) -0.30 (OPEN) 

 Number of closed-shell orbitals:    2 (   1   0   0   0   1   0   0   0 )
 Number of open-shell orbitals:      2 (   0   1   1   0   0   0   0   0 )


 Orbital guess generated from atomic densities. Full valence occupancy:    1   1   1   0   1   0   0   0


 Molecular orbital dump at record        4202.2

 ITERATION    DDIFF          GRAD             ENERGY        2-EL.EN.            DIPOLE MOMENTS         DIIS   ORB.
    1      0.000D+00      0.000D+00        -7.86611890      9.706972    0.00000    0.00000    0.00000    0    start
    2      0.000D+00      0.265D-02        -7.87104720      9.814521    0.00000    0.00000    0.00000    1    diag,B
    3      0.863D-03      0.106D-02        -7.87229128      9.877361    0.00000    0.00000    0.00000    2    diag,B
    4      0.548D-03      0.327D-03        -7.87241527      9.891577    0.00000    0.00000    0.00000    3    diag,B
    5      0.386D-03      0.741D-04        -7.87242071      9.892886    0.00000    0.00000    0.00000    4    diag,B
    6      0.119D-03      0.183D-04        -7.87242104      9.893297    0.00000    0.00000    0.00000    5    diag,B
    7      0.418D-04      0.759D-05        -7.87242111      9.893353    0.00000    0.00000    0.00000    6    fixocc
    8      0.170D-04      0.299D-05        -7.87242112      9.893411    0.00000    0.00000    0.00000    7    diag,B
    9      0.633D-05      0.994D-06        -7.87242112      9.893417    0.00000    0.00000    0.00000    0    orth

 Final alpha occupancy:   1   1   1   0   1   0   0   0
 Final beta  occupancy:   1   0   0   0   1   0   0   0

 !RHF STATE 1.4 Energy                 -7.872421117695
 Nuclear energy                         0.00000000
 One-electron energy                  -12.81912967
 Two-electron energy                    4.94670855
 Virial quotient                       -3.13188560
 !RHF STATE 1.4 Dipole moment           0.00000000     0.00000000     0.00000000
 Dipole moment /Debye                   0.00000000     0.00000000     0.00000000

 ELECTRON ORBITALS
 =================


   Orb  Occ    Energy  Couls-En    Coefficients

                                   1 1s      1 1s      1 1s      1 1s      1 1s      1 1s      1 1s      1 1s      1 1s      1 1s   
                                   1 1s      1 1s      1 1s      1 1s      1 1s      1 1s      1 1s      1 1s      1 1s      1 1s   
                                   1 1s      1 1s      1 1s      1 1s      1 1s      1 1s      1 1s      1 1s      1 1s      1 1s   
                                   1 1s      1 1s      1 3d0     1 3d2+    1 3d0     1 3d2+    1 3d0     1 3d2+    1 3d0     1 3d2+ 
                                   1 3d0     1 3d2+    1 3d0     1 3d2+    1 3d0     1 3d2+    1 3d0     1 3d2+    1 3d0     1 3d2+ 
                                   1 3d0     1 3d2+    1 3d0     1 3d2+    1 3d0     1 3d2+    1 3d0     1 3d2+    1 3d0     1 3d2+ 
                                   1 3d0     1 3d2+    1 3d0     1 3d2+    1 3d0     1 3d2+    1 3d0     1 3d2+    1 3d0     1 3d2+ 
                                   1 5g0     1 5g4+    1 5g2+    1 5g0     1 5g4+    1 5g2+    1 5g0     1 5g4+    1 5g2+    1 5g0  
                                   1 5g4+    1 5g2+ 

   1.1   2    -0.7433   -3.2198 -0.000000  0.000000 -0.000000  0.000000 -0.000000  0.000000 -0.000000  0.000000 -0.000001  0.000003
                                -0.000006  0.000013 -0.000028  0.000066 -0.000149  0.000379 -0.000910  0.002328 -0.005460  0.012384
                                -0.024558  0.043905 -0.068910  0.080400  0.106771 -0.544886 -0.067919  0.497232  0.650444  0.159156
                                 0.003946 -0.000728 -0.000000 -0.000000  0.000000  0.000000 -0.000000 -0.000000  0.000000  0.000000
                                -0.000000 -0.000000  0.000000  0.000000 -0.000000 -0.000000  0.000000  0.000000 -0.000001 -0.000000
                                 0.000001  0.000000 -0.000004 -0.000000  0.000023  0.000000 -0.000079 -0.000000  0.000179  0.000000
                                -0.001268 -0.000000  0.001334  0.000000  0.005021 -0.000000  0.001747  0.000000  0.000168 -0.000000
                                 0.000000 -0.000000  0.000000  0.000006 -0.000000  0.000000  0.000030 -0.000000  0.000000 -0.000049
                                 0.000000  0.000000

   2.1   0     0.0201   -0.6664 -0.000000  0.000000 -0.000000  0.000000 -0.000000  0.000000 -0.000000  0.000000 -0.000001  0.000001
                                -0.000003  0.000006 -0.000013  0.000030 -0.000072  0.000174 -0.000435  0.001061 -0.002520  0.005424
                                -0.010338  0.016604 -0.022662  0.030595 -0.076520  0.178161 -0.226552  0.292819 -0.655889  0.812828
                                -2.081618  2.437082 -0.000000  0.000000  0.000000 -0.000000 -0.000000  0.000000  0.000001 -0.000000
                                -0.000002  0.000000  0.000007 -0.000000 -0.000019  0.000000  0.000048 -0.000000 -0.000106  0.000000
                                 0.000212 -0.000000 -0.000382  0.000000  0.000671 -0.000000 -0.001164  0.000000  0.001591 -0.000000
                                -0.001633  0.000000  0.009460 -0.000000 -0.022210  0.000000  0.024335 -0.000001 -0.054922  0.000001
                                -0.000002  0.000000 -0.000000  0.000008 -0.000000  0.000000 -0.000110  0.000000 -0.000000  0.000414
                                -0.000000 -0.000000

   3.1   0     0.0806   -0.6399  0.000000  0.000000 -0.000000  0.000000 -0.000000  0.000000 -0.000000  0.000000 -0.000000  0.000000
                                -0.000000  0.000000 -0.000000  0.000000 -0.000000  0.000000 -0.000000  0.000000 -0.000000  0.000000
                                -0.000000  0.000000 -0.000000  0.000000 -0.000000  0.000000 -0.000001  0.000002 -0.000002  0.000003
                                -0.000003  0.000001  0.000000  0.000000 -0.000000 -0.000001  0.000000  0.000005 -0.000000 -0.000020
                                 0.000000  0.000074 -0.000000 -0.000227  0.000000  0.000620 -0.000000 -0.001525  0.000000  0.003397
                                -0.000000 -0.006759  0.000000  0.012093 -0.000000 -0.020559  0.000000  0.036295 -0.000000 -0.069561
                                 0.000000  0.120185 -0.000000 -0.224313  0.000001  0.673521 -0.000001 -1.026043  0.000002  1.514648
                                 0.000000 -0.000000  0.000025 -0.000000  0.000000 -0.000191  0.000000 -0.000000  0.000307 -0.000000
                                 0.000000 -0.004362

                                   1 2px     1 2px     1 2px     1 2px     1 2px     1 2px     1 2px     1 2px     1 2px     1 2px  
                                   1 2px     1 2px     1 2px     1 2px     1 2px     1 2px     1 2px     1 2px     1 2px     1 2px  
                                   1 2px     1 2px     1 2px     1 2px     1 2px     1 4f1+    1 4f3+    1 4f1+    1 4f3+    1 4f1+ 
                                   1 4f3+    1 4f1+    1 4f3+    1 4f1+    1 4f3+    1 4f1+    1 4f3+    1 6h1+    1 6h3+    1 6h5+ 


   1.2   +    -0.3945   -2.3733  0.000000 -0.000000  0.000000 -0.000000  0.000000 -0.000002  0.000008 -0.000028  0.000088 -0.000253
                                 0.000677 -0.001694  0.003968 -0.008714  0.018128 -0.036221  0.061374 -0.017097 -0.227894  0.100976
                                 0.446861  0.510699  0.135615  0.001134  0.000211 -0.000211 -0.000000 -0.001826 -0.000000 -0.001860
                                -0.000000 -0.009647  0.000000 -0.015694 -0.000000 -0.004439  0.000000  0.000084  0.000000 -0.000000

   2.2   0     0.0225   -0.4684  0.000000 -0.000000  0.000000 -0.000000  0.000000 -0.000000  0.000001 -0.000003  0.000011 -0.000030
                                 0.000081 -0.000199  0.000449 -0.000916  0.001644 -0.002524  0.003929 -0.012886  0.041103 -0.049346
                                 0.040860 -0.196997  0.315222 -1.066077  1.724855  0.000029 -0.000000  0.000100 -0.000000  0.000295
                                -0.000000  0.000350 -0.000000  0.002388  0.000000 -0.003140 -0.000000 -0.000006 -0.000000  0.000000

   3.2   0     0.0870   -0.5607 -0.000000  0.000000 -0.000000  0.000000 -0.000000  0.000002 -0.000006  0.000022 -0.000068  0.000195
                                -0.000520  0.001292 -0.002980  0.006351 -0.012488  0.022843 -0.037895  0.044440 -0.017022  0.095765
                                -0.328648  0.330419 -1.284181  3.152008 -1.814284  0.000083 -0.000000  0.000315 -0.000000  0.000850
                                -0.000000  0.001149 -0.000000  0.007002 -0.000000 -0.010854  0.000000 -0.000016 -0.000000  0.000000

                                   1 2py     1 2py     1 2py     1 2py     1 2py     1 2py     1 2py     1 2py     1 2py     1 2py  
                                   1 2py     1 2py     1 2py     1 2py     1 2py     1 2py     1 2py     1 2py     1 2py     1 2py  
                                   1 2py     1 2py     1 2py     1 2py     1 2py     1 4f1-    1 4f3-    1 4f1-    1 4f3-    1 4f1- 
                                   1 4f3-    1 4f1-    1 4f3-    1 4f1-    1 4f3-    1 4f1-    1 4f3-    1 6h1-    1 6h3-    1 6h5- 


   1.3   +    -0.3945   -2.3733  0.000000 -0.000000  0.000000 -0.000000  0.000000 -0.000002  0.000008 -0.000028  0.000088 -0.000253
                                 0.000677 -0.001694  0.003968 -0.008714  0.018128 -0.036221  0.061374 -0.017097 -0.227894  0.100976
                                 0.446861  0.510699  0.135615  0.001134  0.000211 -0.000211  0.000000 -0.001826  0.000000 -0.001860
                                 0.000000 -0.009647 -0.000000 -0.015694  0.000000 -0.004439 -0.000000  0.000084 -0.000000 -0.000000

   2.3   0     0.0225   -0.4684  0.000000 -0.000000  0.000000 -0.000000  0.000000 -0.000000  0.000001 -0.000003  0.000011 -0.000030
                                 0.000081 -0.000199  0.000449 -0.000916  0.001644 -0.002524  0.003929 -0.012886  0.041103 -0.049346
                                 0.040860 -0.196997  0.315222 -1.066077  1.724855  0.000029  0.000000  0.000100 -0.000000  0.000295
                                -0.000000  0.000350 -0.000000  0.002388  0.000000 -0.003140 -0.000000 -0.000006 -0.000000  0.000000

   3.3   0     0.0870   -0.5607 -0.000000  0.000000 -0.000000  0.000000 -0.000000  0.000002 -0.000006  0.000022 -0.000068  0.000195
                                -0.000520  0.001292 -0.002980  0.006351 -0.012488  0.022843 -0.037895  0.044440 -0.017022  0.095765
                                -0.328648  0.330419 -1.284181  3.152008 -1.814283  0.000083  0.000000  0.000315 -0.000000  0.000850
                                -0.000000  0.001149  0.000000  0.007002 -0.000000 -0.010854  0.000000 -0.000016 -0.000000  0.000000

                                   1 3d2-    1 3d2-    1 3d2-    1 3d2-    1 3d2-    1 3d2-    1 3d2-    1 3d2-    1 3d2-    1 3d2- 
                                   1 3d2-    1 3d2-    1 3d2-    1 3d2-    1 3d2-    1 3d2-    1 3d2-    1 3d2-    1 3d2-    1 5g2- 
                                   1 5g4-    1 5g2-    1 5g4-    1 5g2-    1 5g4-    1 5g2-    1 5g4- 

   1.4   0     0.0806   -0.6399  0.000000 -0.000001  0.000005 -0.000020  0.000074 -0.000227  0.000620 -0.001525  0.003397 -0.006759
                                 0.012093 -0.020560  0.036295 -0.069561  0.120185 -0.224313  0.673521 -1.026043  1.514648  0.000025
                                -0.000000 -0.000191  0.000000  0.000307 -0.000000 -0.004362  0.000000

   2.4   0     0.1958   -0.7873 -0.000000  0.000002 -0.000008  0.000037 -0.000133  0.000409 -0.001116  0.002750 -0.006112  0.012233
                                -0.021769  0.037567 -0.061626  0.084112 -0.168832  0.657493 -1.087393  2.519999 -1.457832  0.000049
                                -0.000000 -0.000423  0.000000 -0.000230 -0.000000 -0.011822  0.000000

                                   1 2pz     1 2pz     1 2pz     1 2pz     1 2pz     1 2pz     1 2pz     1 2pz     1 2pz     1 2pz  
                                   1 2pz     1 2pz     1 2pz     1 2pz     1 2pz     1 2pz     1 2pz     1 2pz     1 2pz     1 2pz  
                                   1 2pz     1 2pz     1 2pz     1 2pz     1 2pz     1 4f0     1 4f2+    1 4f0     1 4f2+    1 4f0  
                                   1 4f2+    1 4f0     1 4f2+    1 4f0     1 4f2+    1 4f0     1 4f2+    1 6h2+    1 6h4+    1 6h0  


   1.5   2    -0.3251   -2.2792  0.000000 -0.000000  0.000000 -0.000000  0.000000 -0.000002  0.000008 -0.000027  0.000085 -0.000245
                                 0.000656 -0.001642  0.003849 -0.008455  0.017606 -0.035233  0.059872 -0.017107 -0.222871  0.109838
                                 0.407829  0.496330  0.188179  0.007207  0.000059 -0.000113  0.000000 -0.000953  0.000000 -0.001015
                                 0.000000 -0.004780  0.000000 -0.008289  0.000000 -0.003340 -0.000000 -0.000000 -0.000000  0.000019

   2.5   0     0.0241   -0.4595  0.000000 -0.000000  0.000000 -0.000000  0.000000 -0.000000  0.000001 -0.000004  0.000011 -0.000033
                                 0.000086 -0.000212  0.000480 -0.000979  0.001762 -0.002713  0.004226 -0.013604  0.043049 -0.052359
                                 0.045444 -0.204316  0.330505 -1.139561  1.769168  0.000032  0.000000  0.000110  0.000000  0.000329
                                 0.000000  0.000403  0.000000  0.002794 -0.000000 -0.003285  0.000000 -0.000000 -0.000000 -0.000007

   3.5   0     0.0925   -0.5567 -0.000000  0.000000 -0.000000  0.000000 -0.000000  0.000002 -0.000007  0.000023 -0.000073  0.000208
                                -0.000554  0.001376 -0.003174  0.006764 -0.013297  0.024319 -0.040344  0.047423 -0.018502  0.100445
                                -0.342783  0.360275 -1.378792  3.197783 -1.796354  0.000097 -0.000000  0.000353  0.000000  0.000996
                                -0.000000  0.001294  0.000000  0.008657 -0.000000 -0.012439  0.000000  0.000000  0.000000 -0.000021

                                   1 3d1+    1 3d1+    1 3d1+    1 3d1+    1 3d1+    1 3d1+    1 3d1+    1 3d1+    1 3d1+    1 3d1+ 
                                   1 3d1+    1 3d1+    1 3d1+    1 3d1+    1 3d1+    1 3d1+    1 3d1+    1 3d1+    1 3d1+    1 5g1+ 
                                   1 5g3+    1 5g1+    1 5g3+    1 5g1+    1 5g3+    1 5g1+    1 5g3+ 

   1.6   0     0.0846   -0.6174  0.000000 -0.000001  0.000005 -0.000022  0.000078 -0.000239  0.000653 -0.001606  0.003577 -0.007121
                                 0.012732 -0.021659  0.037998 -0.071281  0.124181 -0.246609  0.698098 -1.100341  1.560806  0.000033
                                -0.000000 -0.000242  0.000000  0.000540 -0.000000 -0.005399  0.000000

   2.6   0     0.2089   -0.7614 -0.000000  0.000002 -0.000009  0.000039 -0.000141  0.000434 -0.001183  0.002916 -0.006482  0.012968
                                -0.023090  0.039808 -0.065773  0.093245 -0.183645  0.672836 -1.184897  2.618037 -1.450440  0.000070
                                 0.000000 -0.000582  0.000000  0.000149 -0.000000 -0.016108  0.000000

                                   1 3d1-    1 3d1-    1 3d1-    1 3d1-    1 3d1-    1 3d1-    1 3d1-    1 3d1-    1 3d1-    1 3d1- 
                                   1 3d1-    1 3d1-    1 3d1-    1 3d1-    1 3d1-    1 3d1-    1 3d1-    1 3d1-    1 3d1-    1 5g1- 
                                   1 5g3-    1 5g1-    1 5g3-    1 5g1-    1 5g3-    1 5g1-    1 5g3- 

   1.7   0     0.0846   -0.6174  0.000000 -0.000001  0.000005 -0.000022  0.000078 -0.000239  0.000653 -0.001606  0.003577 -0.007121
                                 0.012732 -0.021659  0.037998 -0.071281  0.124181 -0.246609  0.698098 -1.100341  1.560806  0.000033
                                 0.000000 -0.000242 -0.000000  0.000540  0.000000 -0.005399 -0.000000

   2.7   0     0.2089   -0.7614 -0.000000  0.000002 -0.000009  0.000039 -0.000141  0.000434 -0.001183  0.002916 -0.006482  0.012968
                                -0.023090  0.039808 -0.065773  0.093245 -0.183645  0.672836 -1.184897  2.618037 -1.450440  0.000070
                                 0.000000 -0.000582 -0.000000  0.000149  0.000000 -0.016108 -0.000000

                                   1 4f2-    1 4f2-    1 4f2-    1 4f2-    1 4f2-    1 4f2-    1 6h4-    1 6h2- 

   1.8   0     0.3545   -0.5091 -0.001418  0.021046 -0.021393  0.135974 -0.306866  1.168661  0.000000 -0.000259

   2.8   0     0.8445   -0.1616  0.016654  0.051815  0.189670 -0.045770  1.314901 -0.784296  0.000000 -0.001421

 HOMO      1.5    -0.325060 =      -8.8453eV
 LUMO      2.1     0.020090 =       0.5467eV
 LUMO-HOMO         0.345150 =       9.3920eV


 **********************************************************************************************************************************
 DATASETS  * FILE   NREC   LENGTH (MB)   RECORD NAMES
              1      19       20.58       500      610      700      900      950      970     1000      129      960     1100   
                                          VAR    BASINP    GEOM    SYMINP    ZMAT    AOBASIS   BASIS     P2S    ABASIS      S 
                                         1400     1410     1420     1200     1210     1080     1600     1650     1700   
                                           T        V       ECP      H0       H01     AOSYM     SMH    MOLCAS    OPER   

              2       5        5.77       200      700     1000      520     4202   
                                        OPTIONS   GEOM     BASIS   MCVARS     RHF  

 PROGRAMS   *        TOTAL       RHF       INT
 CPU TIMES  *        44.38      0.69     43.22
 REAL TIME  *        47.58 SEC
 DISK USED  *         1.72 GB      
 SF USED    *         0.06 MB      
 GA USED    *         0.00 MB       (max)       0.00 MB       (current)
 **********************************************************************************************************************************


 PROGRAM * POP (Mulliken population analysis)

 
 Density matrix read from record         4202.2  Type=RHF/CHARGE (state 1.4)
 
 Population analysis by basis function type

 Unique atom        s        p        d        f        g    Total    Charge
   1  TE      1.99989  3.99811  0.00011  0.00189  0.00000  6.00000  + 0.00000


 **********************************************************************************************************************************
 DATASETS  * FILE   NREC   LENGTH (MB)   RECORD NAMES
              1      19       20.58       500      610      700      900      950      970     1000      129      960     1100   
                                          VAR    BASINP    GEOM    SYMINP    ZMAT    AOBASIS   BASIS     P2S    ABASIS      S 
                                         1400     1410     1420     1200     1210     1080     1600     1650     1700   
                                           T        V       ECP      H0       H01     AOSYM     SMH    MOLCAS    OPER   

              2       5        5.77       200      700     1000      520     4202   
                                        OPTIONS   GEOM     BASIS   MCVARS     RHF  

 PROGRAMS   *        TOTAL       POP       RHF       INT
 CPU TIMES  *        44.38      0.00      0.69     43.22
 REAL TIME  *        47.59 SEC
 DISK USED  *         1.72 GB      
 SF USED    *         0.06 MB      
 GA USED    *         0.00 MB       (max)       0.00 MB       (current)
 **********************************************************************************************************************************


 PROGRAM * MULTI (Direct Multiconfiguration SCF)       Authors: P.J. Knowles, H.-J. Werner (1984)     S.T. Elbert (1988)


 Number of closed-shell orbitals:   1 (   1   0   0   0   0   0   0   0 )
 Number of active  orbitals:        3 (   0   1   1   0   1   0   0   0 )
 Number of external orbitals:     287 (  81  39  39  27  39  27  27   8 )

 State symmetry 1

 Number of electrons:     4    Spin symmetry=Triplet   Space symmetry=4
 Number of states:        1
 Number of CSFs:          1   (1 determinants, 3 intermediate states)

 State symmetry 2

 Number of electrons:     4    Spin symmetry=Triplet   Space symmetry=6
 Number of states:        1
 Number of CSFs:          1   (1 determinants, 3 intermediate states)

 State symmetry 3

 Number of electrons:     4    Spin symmetry=Triplet   Space symmetry=7
 Number of states:        1
 Number of CSFs:          1   (1 determinants, 3 intermediate states)

 Molecular orbitals read from record     4202.2  Type=RHF/CANONICAL (state 1.4)
 *** IN SYMMETRY 1 ORBITAL  1 SYMMETRY CONTAMINATION OF 0.435D-02 HAS BEEN REMOVED

 EXTRA SYMMETRY OF MOS IN SYMMETRY 1:   1 1 3 2 1 3 2 1 3 2   5 6 4 3 2 1 3 2 5 6   4 1 3 2 5 6 4 1 3 2   1 5 6 4 3 2 1 3 2 1
                                        3 2 1 3 2 1 3 2 1 3   2 1 1 3 2 1 3 2 1 3   2 1 3 2 1 1 3 2 1 3   2 1 1 1 1 1 1 1 1 1
                                        1 1
 *** IN SYMMETRY 2 ORBITAL  1 SYMMETRY CONTAMINATION OF 0.210D-01 HAS BEEN REMOVED
 EXTRA SYMMETRY OF MOS IN SYMMETRY 2:   1 1 1 1 3 2 3 2 1 3   2 1 3 2 6 5 4 1 3 2   3 2 1 1 1 1 1 1 1 1   1 1 1 1 1 1 1 1 1 1
 *** IN SYMMETRY 3 ORBITAL  1 SYMMETRY CONTAMINATION OF 0.210D-01 HAS BEEN REMOVED
 EXTRA SYMMETRY OF MOS IN SYMMETRY 3:   1 1 1 1 3 2 3 2 1 3   2 1 3 2 6 5 4 1 3 2   3 2 1 1 1 1 1 1 1 1   1 1 1 1 1 1 1 1 1 1
 EXTRA SYMMETRY OF MOS IN SYMMETRY 4:   1 1 1 3 2 1 1 3 2 1   3 2 1 3 2 1 1 1 1 1   1 1 1 1 1 1 1
 *** IN SYMMETRY 5 ORBITAL  1 SYMMETRY CONTAMINATION OF 0.116D-01 HAS BEEN REMOVED
 EXTRA SYMMETRY OF MOS IN SYMMETRY 5:   1 1 1 1 3 2 3 2 1 3   2 1 3 2 5 4 6 1 3 2   3 2 1 1 1 1 1 1 1 1   1 1 1 1 1 1 1 1 1 1
 EXTRA SYMMETRY OF MOS IN SYMMETRY 6:   1 1 1 3 2 1 1 3 2 1   3 2 1 3 2 1 1 1 1 1   1 1 1 1 1 1 1
 EXTRA SYMMETRY OF MOS IN SYMMETRY 7:   1 1 1 3 2 1 1 3 2 1   3 2 1 3 2 1 1 1 1 1   1 1 1 1 1 1 1
 EXTRA SYMMETRY OF MOS IN SYMMETRY 8:   1 1 1 1 2 3 1 1

 Wavefunction dump at record             5202.2

 Convergence thresholds  0.10E-01 (gradient)  0.10E-05 (energy)  0.10E-02 (step length)

 Weight factors for state symmetry  1:    0.33333
 Weight factors for state symmetry  2:    0.33333
 Weight factors for state symmetry  3:    0.33333

 Number of orbital rotations:      198   (     0 Core/Active     81 Core/Virtual   0 Active/Active    117 Active/Virtual)
 Total number of variables:        201


 ITER. MIC  NCI  NEG     ENERGY(VAR)     ENERGY(PROJ)   ENERGY CHANGE     GRAD(0)  GRAD(ORB)   GRAD(CI)     STEP       TIME

   1   23   12    0      -7.86907234      -7.86989378   -0.00082145    0.02318329 0.00000000 0.00000000  0.40D-01      0.15
   2   14   12    0      -7.86989590      -7.86989591   -0.00000002    0.00011941 0.00000000 0.00000000  0.17D-03      0.26
   3   13   12    0      -7.86989591      -7.86989591   -0.00000000    0.00000000 0.00000000 0.00000000  0.45D-08      0.38

 ** WVFN ****  CONVERGENCE REACHED, FINAL GRADIENT:  0.86D-12



 Results for state 1.4
 =====================

 !MCSCF STATE 1.4 Energy               -7.869895913270
 Nuclear energy                         0.00000000
 Kinetic energy                         2.51057644
 One electron energy                  -12.82166923
 Two electron energy                    4.95177332
 Virial ratio                           4.13469679

 !MCSCF STATE 1.4 Dipole moment         0.00000000     0.00000000     0.00000000
 Dipole moment /Debye                   0.00000000     0.00000000     0.00000000



 Results for state 1.6
 =====================

 !MCSCF STATE 1.6 Energy               -7.869895913270
 Nuclear energy                         0.00000000
 Kinetic energy                         2.51057644
 One electron energy                  -12.82166923
 Two electron energy                    4.95177332
 Virial ratio                           4.13469679

 !MCSCF STATE 1.6 Dipole moment         0.00000000     0.00000000     0.00000000
 Dipole moment /Debye                   0.00000000     0.00000000     0.00000000



 Results for state 1.7
 =====================

 !MCSCF STATE 1.7 Energy               -7.869895913270
 Nuclear energy                         0.00000000
 Kinetic energy                         2.51057644
 One electron energy                  -12.82166923
 Two electron energy                    4.95177332
 Virial ratio                           4.13469679

 !MCSCF STATE 1.7 Dipole moment         0.00000000     0.00000000     0.00000000
 Dipole moment /Debye                   0.00000000     0.00000000     0.00000000

 State-averaged charge density matrix saved on record  5202.2 (density set 1)


 NATURAL ORBITALS (state averaged)
 =================================

   Orb     Occ        Energy       Coefficients

                                   1 1s      1 1s      1 1s      1 1s      1 1s      1 1s      1 1s      1 1s      1 1s      1 1s   
                                   1 1s      1 1s      1 1s      1 1s      1 1s      1 1s      1 1s      1 1s      1 1s      1 1s   
                                   1 1s      1 1s      1 1s      1 1s      1 1s      1 1s      1 1s      1 1s      1 1s      1 1s   
                                   1 1s      1 1s      1 3d0     1 3d2+    1 3d0     1 3d2+    1 3d0     1 3d2+    1 3d0     1 3d2+ 
                                   1 3d0     1 3d2+    1 3d0     1 3d2+    1 3d0     1 3d2+    1 3d0     1 3d2+    1 3d0     1 3d2+ 
                                   1 3d0     1 3d2+    1 3d0     1 3d2+    1 3d0     1 3d2+    1 3d0     1 3d2+    1 3d0     1 3d2+ 
                                   1 3d0     1 3d2+    1 3d0     1 3d2+    1 3d0     1 3d2+    1 3d0     1 3d2+    1 3d0     1 3d2+ 
                                   1 5g0     1 5g4+    1 5g2+    1 5g0     1 5g4+    1 5g2+    1 5g0     1 5g4+    1 5g2+    1 5g0  
                                   1 5g4+    1 5g2+ 

   1.1  2.00000    -0.743250    -0.000000  0.000000 -0.000000  0.000000 -0.000000  0.000000 -0.000000  0.000000 -0.000001  0.000003
                                -0.000006  0.000013 -0.000028  0.000066 -0.000149  0.000379 -0.000910  0.002327 -0.005458  0.012379
                                -0.024549  0.043889 -0.068887  0.080370  0.106811 -0.544960 -0.067659  0.496942  0.650315  0.159500
                                 0.003838 -0.000710  0.000000  0.000000  0.000000  0.000000  0.000000  0.000000  0.000000  0.000000
                                 0.000000  0.000000  0.000000  0.000000  0.000000  0.000000  0.000000  0.000000  0.000000  0.000000
                                 0.000000  0.000000  0.000000  0.000000  0.000000  0.000000  0.000000  0.000000  0.000000  0.000000
                                 0.000000  0.000000  0.000000  0.000000  0.000000  0.000000  0.000000  0.000000  0.000000  0.000000
                                 0.000000  0.000000  0.000000  0.000000  0.000000  0.000000  0.000000  0.000000  0.000000  0.000000
                                 0.000000  0.000000

                                   1 2px     1 2px     1 2px     1 2px     1 2px     1 2px     1 2px     1 2px     1 2px     1 2px  
                                   1 2px     1 2px     1 2px     1 2px     1 2px     1 2px     1 2px     1 2px     1 2px     1 2px  
                                   1 2px     1 2px     1 2px     1 2px     1 2px     1 4f1+    1 4f3+    1 4f1+    1 4f3+    1 4f1+ 
                                   1 4f3+    1 4f1+    1 4f3+    1 4f1+    1 4f3+    1 4f1+    1 4f3+    1 6h1+    1 6h3+    1 6h5+ 


   1.2  1.33333    -0.239542     0.000000 -0.000000  0.000000 -0.000000  0.000000 -0.000002  0.000008 -0.000028  0.000087 -0.000249
                                 0.000666 -0.001667  0.003907 -0.008581  0.017861 -0.035718  0.060614 -0.017081 -0.225523  0.105999
                                 0.425876  0.505151  0.162307  0.003088  0.000340  0.000000  0.000000  0.000000  0.000000  0.000000
                                 0.000000  0.000000  0.000000  0.000000  0.000000  0.000000  0.000000  0.000000  0.000000  0.000000

                                   1 2py     1 2py     1 2py     1 2py     1 2py     1 2py     1 2py     1 2py     1 2py     1 2py  
                                   1 2py     1 2py     1 2py     1 2py     1 2py     1 2py     1 2py     1 2py     1 2py     1 2py  
                                   1 2py     1 2py     1 2py     1 2py     1 2py     1 4f1-    1 4f3-    1 4f1-    1 4f3-    1 4f1- 
                                   1 4f3-    1 4f1-    1 4f3-    1 4f1-    1 4f3-    1 4f1-    1 4f3-    1 6h1-    1 6h3-    1 6h5- 


   1.3  1.33333    -0.239542     0.000000 -0.000000  0.000000 -0.000000  0.000000 -0.000002  0.000008 -0.000028  0.000087 -0.000249
                                 0.000666 -0.001667  0.003907 -0.008581  0.017861 -0.035718  0.060614 -0.017081 -0.225523  0.105999
                                 0.425876  0.505151  0.162307  0.003088  0.000340  0.000000  0.000000  0.000000  0.000000  0.000000
                                 0.000000  0.000000  0.000000  0.000000  0.000000  0.000000  0.000000  0.000000  0.000000  0.000000

                                   1 2pz     1 2pz     1 2pz     1 2pz     1 2pz     1 2pz     1 2pz     1 2pz     1 2pz     1 2pz  
                                   1 2pz     1 2pz     1 2pz     1 2pz     1 2pz     1 2pz     1 2pz     1 2pz     1 2pz     1 2pz  
                                   1 2pz     1 2pz     1 2pz     1 2pz     1 2pz     1 4f0     1 4f2+    1 4f0     1 4f2+    1 4f0  
                                   1 4f2+    1 4f0     1 4f2+    1 4f0     1 4f2+    1 4f0     1 4f2+    1 6h2+    1 6h4+    1 6h0  


   1.5  1.33333    -0.239542     0.000000 -0.000000  0.000000 -0.000000  0.000000 -0.000002  0.000008 -0.000028  0.000087 -0.000249
                                 0.000666 -0.001667  0.003907 -0.008581  0.017861 -0.035718  0.060614 -0.017081 -0.225523  0.105999
                                 0.425876  0.505151  0.162307  0.003088  0.000340  0.000000  0.000000  0.000000  0.000000  0.000000
                                 0.000000  0.000000  0.000000  0.000000  0.000000  0.000000  0.000000  0.000000  0.000000  0.000000
 

 EXTRA SYMMETRY OF MOS IN SYMMETRY 1:   1 1 3 2 1 2 3 1 2 3   4 6 5 2 3 1 3 2 4 6   5 1 3 2 4 5 6 1 3 2   1 4 6 5 3 2 1 3 2 1
                                        3 2 1 2 3 1 2 3 1 3   2 1 1 3 2 1 3 2 1 3   2 1 3 2 1 1 3 2 1 3   2 1 1 1 1 1 1 1 1 1
                                        1 1
 EXTRA SYMMETRY OF MOS IN SYMMETRY 2:   1 1 1 1 2 3 2 3 1 2   3 1 3 2 4 6 5 1 2 3   2 3 1 1 1 1 1 1 1 1   1 1 1 1 1 1 1 1 1 1
 EXTRA SYMMETRY OF MOS IN SYMMETRY 3:   1 1 1 1 3 2 3 2 1 2   3 1 3 2 4 5 6 1 2 3   2 3 1 1 1 1 1 1 1 1   1 1 1 1 1 1 1 1 1 1
 EXTRA SYMMETRY OF MOS IN SYMMETRY 4:   1 1 1 3 2 1 1 2 3 1   2 3 1 2 3 1 1 1 1 1   1 1 1 1 1 1 1
 EXTRA SYMMETRY OF MOS IN SYMMETRY 5:   1 1 1 1 2 3 2 3 1 2   3 1 2 3 4 6 5 1 3 2   3 2 1 1 1 1 1 1 1 1   1 1 1 1 1 1 1 1 1 1
 EXTRA SYMMETRY OF MOS IN SYMMETRY 6:   1 1 1 2 3 1 1 3 2 1   3 2 1 3 2 1 1 1 1 1   1 1 1 1 1 1 1
 EXTRA SYMMETRY OF MOS IN SYMMETRY 8:   1 1 1 1 3 2 1 1

 Natural orbital dump (state averaged) at molpro section  5202.2    (Orbital set 2)


 CI vector for state symmetry 1
 ==============================

 a a 2           1.0000000

 TOTAL ENERGIES                        -7.86989591

 CI vector for state symmetry 2
 ==============================

 a 2 a           1.0000000

 TOTAL ENERGIES                        -7.86989591

 CI vector for state symmetry 3
 ==============================

 2 a a           1.0000000

 TOTAL ENERGIES                        -7.86989591



 **********************************************************************************************************************************
 DATASETS  * FILE   NREC   LENGTH (MB)   RECORD NAMES
              1      20       22.23       500      610      700      900      950      970     1000      129      960     1100   
                                          VAR    BASINP    GEOM    SYMINP    ZMAT    AOBASIS   BASIS     P2S    ABASIS      S 
                                         1400     1410     1420     1200     1210     1080     1600     1650     1700     1380   
                                           T        V       ECP      H0       H01     AOSYM     SMH    MOLCAS    OPER     JKOP   

              2       6        8.77       200      700     1000      520     4202     5202   
                                        OPTIONS   GEOM     BASIS   MCVARS     RHF     MCSCF   

 PROGRAMS   *        TOTAL     MULTI       POP       RHF       INT
 CPU TIMES  *        45.01      0.62      0.00      0.69     43.22
 REAL TIME  *        49.37 SEC
 DISK USED  *         1.72 GB      
 SF USED    *        15.59 MB      
 GA USED    *         0.00 MB       (max)       0.00 MB       (current)
 **********************************************************************************************************************************


 PROGRAM * RHF-SCF (OPEN SHELL)       Authors: W. Meyer, H.-J. Werner


 NUMBER OF ELECTRONS:       4+    2-    SPACE SYMMETRY=4    SPIN SYMMETRY: Triplet 
 CONVERGENCE THRESHOLDS:    1.00E-05 (Density)    1.00E-07 (Energy)
 MAX. NUMBER OF ITERATIONS:        0
 INTERPOLATION TYPE:            DIIS
 INTERPOLATION STEPS:              2 (START)      1 (STEP)
 LEVEL SHIFTS:                 -0.60 (CLOSED) -0.30 (OPEN) 

 Number of closed-shell orbitals:    2 (   1   0   0   0   1   0   0   0 )
 Number of open-shell orbitals:      2 (   0   1   1   0   0   0   0   0 )


 Molecular orbitals read from record     5202.2  Type=MCSCF/NATURAL (state averaged)

 Molecular orbital dump at record        2101.2

 ITERATION    DDIFF          GRAD             ENERGY        2-EL.EN.            DIPOLE MOMENTS         DIIS   ORB.
    1      0.000D+00      0.000D+00        -7.86989591      9.903547    0.00000    0.00000    0.00000    0    start

 Final alpha occupancy:   1   1   1   0   1   0   0   0
 Final beta  occupancy:   1   0   0   0   1   0   0   0

 !RHF STATE 1.4 Energy                 -7.869895913270
 Nuclear energy                         0.00000000
 One-electron energy                  -12.82166923
 Two-electron energy                    4.95177332
 Virial quotient                       -3.13469679
 !RHF STATE 1.4 Dipole moment           0.00000000     0.00000000     0.00000000
 Dipole moment /Debye                   0.00000000     0.00000000     0.00000000

 Orbital energies:

         1.1          2.1          3.1
     -0.743250     0.021238     0.085113

         1.2          2.2          3.2
     -0.239542     0.023304     0.090953

         1.3          2.3          3.3
     -0.239542     0.023304     0.090953

         1.4          2.4
      0.085113     0.218299

         1.5          2.5          3.5
     -0.239542     0.023304     0.090953

         1.6          2.6
      0.085113     0.218299

         1.7          2.7
      0.085113     0.218299

         1.8          2.8
      0.359042     0.863072

 HOMO      1.2    -0.239542 =      -6.5183eV
 LUMO      2.1     0.021238 =       0.5779eV
 LUMO-HOMO         0.260780 =       7.0962eV


 **********************************************************************************************************************************
 DATASETS  * FILE   NREC   LENGTH (MB)   RECORD NAMES
              1      20       22.23       500      610      700      900      950      970     1000      129      960     1100   
                                          VAR    BASINP    GEOM    SYMINP    ZMAT    AOBASIS   BASIS     P2S    ABASIS      S 
                                         1400     1410     1420     1200     1210     1080     1600     1650     1700     1380   
                                           T        V       ECP      H0       H01     AOSYM     SMH    MOLCAS    OPER     JKOP   

              2       7       11.89       200      700     1000      520     4202     5202     2101   
                                        OPTIONS   GEOM     BASIS   MCVARS     RHF     MCSCF     RHF  

 PROGRAMS   *        TOTAL       RHF     MULTI       POP       RHF       INT
 CPU TIMES  *        45.26      0.25      0.62      0.00      0.69     43.22
 REAL TIME  *        53.60 SEC
 DISK USED  *         1.72 GB      
 SF USED    *        15.59 MB      
 GA USED    *         0.00 MB       (max)       0.00 MB       (current)
 **********************************************************************************************************************************
 SETTING SCF(1)         =        -7.86989591  AU                              
 SETTING _CC_NORM_MAX   =         2.00000000                                  


 PROGRAM * CCSD (Restricted open-shell coupled cluster)     Authors: C. Hampel, H.-J. Werner, 1991, M. Deegan, P.J. Knowles, 1992


 Convergence thresholds:  THRVAR = 1.00D-08  THRDEN = 1.00D-06

 CCSD(T)     terms to be evaluated (factor= 1.000)


 Number of closed-shell orbitals:   2 (   1   0   0   0   1   0   0   0 )
 Number of active  orbitals:        2 (   0   1   1   0   0   0   0   0 )
 Number of external orbitals:     287 (  81  39  39  27  39  27  27   8 )

 Memory could be reduced to 32.87 Mwords without degradation in triples

 Number of N-1 electron functions:               6
 Number of N-2 electron functions:              15
 Number of singly external CSFs:               320
 Number of doubly external CSFs:            127414
 Total number of CSFs:                      127734

 Molecular orbitals read from record     2101.2  Type=RHF/CANONICAL (state 1.4)

 Integral transformation finished. Total CPU:   1.10 sec, npass=  1  Memory used:   4.30 MW

 Starting RMP2 calculation

 Wavefunction is spin-projected

 ITER.      SQ.NORM     CORR.ENERGY   TOTAL ENERGY   ENERGY CHANGE        DEN1      VAR(S)    VAR(P)  DIIS     TIME
   1      1.05960237    -0.11696916    -7.98686507    -0.11696916    -0.00106688  0.64D-04  0.57D-03  1  1     1.12
   2      1.06126865    -0.11817690    -7.98807282    -0.00120775    -0.00000250  0.52D-06  0.12D-05  2  2     1.13
   3      1.06131828    -0.11819514    -7.98809106    -0.00001824    -0.00000001  0.10D-07  0.26D-08  3  3     1.18
   4      1.06131967    -0.11819530    -7.98809121    -0.00000015    -0.00000000  0.22D-09  0.96D-11  4  4     1.19

 Norm of t1 vector:      0.06291861      S-energy:    -0.00441214      T1 diagnostic:  0.01326289
 Norm of t2 vector:      0.23950139      P-energy:    -0.11378316
                                         Alpha-Beta:  -0.09079818
                                         Alpha-Alpha: -0.01999683
                                         Beta-Beta:   -0.00298815

 Spin contamination <S**2-Sz**2-Sz>     0.00000000
  Reference energy                     -7.869895913270
  RHF-RMP2 correlation energy          -0.118195298855
 !RHF-RMP2 energy                      -7.988091212125
 (NB above energy spin projected)

 Starting RCCSD calculation

 ITER.      SQ.NORM     CORR.ENERGY   TOTAL ENERGY   ENERGY CHANGE        DEN1      VAR(S)    VAR(P)  DIIS     TIME
   1      1.07104083    -0.12533845    -7.99523437    -0.12533845    -0.00503621  0.51D-03  0.23D-02  1  1     1.36
   2      1.08076190    -0.13114427    -8.00104018    -0.00580582    -0.00018628  0.29D-04  0.80D-04  2  2     1.52
   3      1.08269481    -0.13182917    -8.00172508    -0.00068490    -0.00001085  0.18D-05  0.54D-05  3  3     1.83
   4      1.08310573    -0.13193044    -8.00182635    -0.00010127    -0.00000081  0.16D-06  0.42D-06  4  4     1.99
   5      1.08320786    -0.13195343    -8.00184934    -0.00002299    -0.00000005  0.14D-07  0.21D-07  5  5     2.15
   6      1.08321885    -0.13195363    -8.00184954    -0.00000020    -0.00000000  0.17D-08  0.12D-08  6  6     2.31

 Norm of t1 vector:      0.08412996      S-energy:    -0.00550577      T1 diagnostic:  0.01921942
                                                                       D1 diagnostic:  0.02832868
 Norm of t2 vector:      0.27593660      P-energy:    -0.12644786
                                         Alpha-Beta:  -0.10365053
                                         Alpha-Alpha: -0.01985667
                                         Beta-Beta:   -0.00294066

 Spin contamination <S**2-Sz**2-Sz>     0.00000000

 Memory could be reduced to 33.51 Mwords without degradation in triples
 

 RESULTS
 =======

  Reference energy                     -7.869895913270
  RCCSD singles energy                 -0.005505766936
  RCCSD pair energy                    -0.126447859065
  RCCSD correlation energy             -0.131953626001
  Triples (T) contribution             -0.005496302206
  Total correlation energy             -0.137449928207
 
  RHF-RCCSD energy                     -8.001849539270
  RHF-RCCSD[T] energy                  -8.007356726343
  RHF-RCCSD-T energy                   -8.007330310410
 !RHF-RCCSD(T) energy                  -8.007345841477

 Program statistics:

 Available memory in ccsd:               511999732
 Min. memory needed in ccsd:                725524
 Max. memory used in ccsd:                  841476
 Max. memory used in cckext:                843502 ( 6 integral passes)
 Max. memory used in cckint:               4302073 ( 1 integral passes)



 **********************************************************************************************************************************
 DATASETS  * FILE   NREC   LENGTH (MB)   RECORD NAMES
              1      20       22.23       500      610      700      900      950      970     1000      129      960     1100   
                                          VAR    BASINP    GEOM    SYMINP    ZMAT    AOBASIS   BASIS     P2S    ABASIS      S 
                                         1400     1410     1420     1200     1210     1080     1600     1650     1700     1380   
                                           T        V       ECP      H0       H01     AOSYM     SMH    MOLCAS    OPER     JKOP   

              2       7       11.89       200      700     1000      520     4202     5202     2101   
                                        OPTIONS   GEOM     BASIS   MCVARS     RHF     MCSCF     RHF  

 PROGRAMS   *        TOTAL  RCCSD(T)       RHF     MULTI       POP       RHF       INT
 CPU TIMES  *        49.43      4.17      0.25      0.62      0.00      0.69     43.22
 REAL TIME  *        59.43 SEC
 DISK USED  *         2.04 GB      
 SF USED    *       321.04 MB      
 GA USED    *         0.00 MB       (max)       0.00 MB       (current)
 **********************************************************************************************************************************
 SETTING CCSD(1)        =        -8.00734584  AU                              

 DO I                   =         2.00000000   

 Running procedure=IS25P36S


 PROGRAM * RHF-SCF (OPEN SHELL)       Authors: W. Meyer, H.-J. Werner


 NUMBER OF ELECTRONS:       5+    1-    SPACE SYMMETRY=8    SPIN SYMMETRY: Quintet 
 CONVERGENCE THRESHOLDS:    1.00E-05 (Density)    1.00E-07 (Energy)
 MAX. NUMBER OF ITERATIONS:       60
 INTERPOLATION TYPE:            DIIS
 INTERPOLATION STEPS:              2 (START)      1 (STEP)
 LEVEL SHIFTS:                 -0.60 (CLOSED) -0.30 (OPEN) 

 Number of closed-shell orbitals:    1 (   1   0   0   0   0   0   0   0 )
 Number of open-shell orbitals:      4 (   1   1   1   0   1   0   0   0 )


 Orbital guess generated from atomic densities. Full valence occupancy:    1   1   1   0   1   0   0   0


 Molecular orbital dump at record        4202.2

 ITERATION    DDIFF          GRAD             ENERGY        2-EL.EN.            DIPOLE MOMENTS         DIIS   ORB.
    1      0.000D+00      0.000D+00        -7.64601157      7.610503    0.00000    0.00000    0.00000    0    start
    2      0.000D+00      0.578D-02        -7.68815189      7.982781    0.00000    0.00000    0.00000    1    diag,B
    3      0.339D-01      0.231D-02        -7.70176244      8.244101    0.00000    0.00000    0.00000    2    diag,B
    4      0.350D-01      0.893D-03        -7.70702937      8.372241    0.00000    0.00000    0.00000    3    diag,B
    5      0.274D-01      0.567D-03        -7.71075511      8.489162    0.00000    0.00000    0.00000    4    diag,B
    6      0.223D-01      0.258D-03        -7.71146324      8.560418    0.00000    0.00000    0.00000    5    diag,B
    7      0.794D-02      0.650D-04        -7.71148584      8.568558    0.00000    0.00000    0.00000    6    fixocc
    8      0.968D-03      0.193D-04        -7.71148696      8.569705    0.00000    0.00000    0.00000    7    diag,B
    9      0.342D-03      0.346D-05        -7.71148698      8.569886    0.00000    0.00000    0.00000    8    diag,B
   10      0.159D-04      0.114D-05        -7.71148698      8.569922    0.00000    0.00000    0.00000    9    orth
   11      0.152D-04      0.136D-06        -7.71148698      8.569920    0.00000    0.00000    0.00000    9    diag,B
   12      0.706D-06      0.377D-07        -7.71148698      8.569921    0.00000    0.00000    0.00000    0    orth

 Final alpha occupancy:   2   1   1   0   1   0   0   0
 Final beta  occupancy:   1   0   0   0   0   0   0   0

 !RHF STATE 1.8 Energy                 -7.711486982012
 Nuclear energy                         0.00000000
 One-electron energy                  -11.99644772
 Two-electron energy                    4.28496074
 Virial quotient                       -3.22899893
 !RHF STATE 1.8 Dipole moment           0.00000000     0.00000000     0.00000000
 Dipole moment /Debye                   0.00000000     0.00000000     0.00000000

 ELECTRON ORBITALS
 =================


   Orb  Occ    Energy  Couls-En    Coefficients

                                   1 1s      1 1s      1 1s      1 1s      1 1s      1 1s      1 1s      1 1s      1 1s      1 1s   
                                   1 1s      1 1s      1 1s      1 1s      1 1s      1 1s      1 1s      1 1s      1 1s      1 1s   
                                   1 1s      1 1s      1 1s      1 1s      1 1s      1 1s      1 1s      1 1s      1 1s      1 1s   
                                   1 1s      1 1s      1 3d0     1 3d2+    1 3d0     1 3d2+    1 3d0     1 3d2+    1 3d0     1 3d2+ 
                                   1 3d0     1 3d2+    1 3d0     1 3d2+    1 3d0     1 3d2+    1 3d0     1 3d2+    1 3d0     1 3d2+ 
                                   1 3d0     1 3d2+    1 3d0     1 3d2+    1 3d0     1 3d2+    1 3d0     1 3d2+    1 3d0     1 3d2+ 
                                   1 3d0     1 3d2+    1 3d0     1 3d2+    1 3d0     1 3d2+    1 3d0     1 3d2+    1 3d0     1 3d2+ 
                                   1 5g0     1 5g4+    1 5g2+    1 5g0     1 5g4+    1 5g2+    1 5g0     1 5g4+    1 5g2+    1 5g0  
                                   1 5g4+    1 5g2+ 

   1.1   2    -0.8649   -3.3623 -0.000000  0.000000 -0.000000  0.000000 -0.000000  0.000000 -0.000000  0.000000 -0.000001  0.000003
                                -0.000006  0.000014 -0.000030  0.000071 -0.000162  0.000410 -0.000986  0.002518 -0.005907  0.013384
                                -0.026523  0.047337 -0.074204  0.087318  0.106072 -0.563773 -0.090255  0.575776  0.668984  0.086792
                                 0.005809  0.000142 -0.000000 -0.000000  0.000000  0.000000 -0.000000 -0.000000  0.000000  0.000000
                                -0.000000 -0.000000  0.000000  0.000000 -0.000000 -0.000000  0.000000  0.000000 -0.000000 -0.000000
                                 0.000000  0.000000 -0.000000 -0.000000  0.000000  0.000000 -0.000000 -0.000000  0.000000  0.000000
                                -0.000000 -0.000000  0.000000  0.000000 -0.000000 -0.000000  0.000000  0.000000 -0.000000 -0.000000
                                 0.000000  0.000000 -0.000000  0.000000  0.000000  0.000000 -0.000000 -0.000000 -0.000000  0.000000
                                 0.000000  0.000000

   2.1   +    -0.1191   -1.0869  0.000000 -0.000000  0.000000 -0.000000  0.000000 -0.000000  0.000000 -0.000000  0.000000 -0.000001
                                 0.000002 -0.000003  0.000007 -0.000018  0.000040 -0.000103  0.000245 -0.000632  0.001480 -0.003397
                                 0.006801 -0.012440  0.020178 -0.024396 -0.037919  0.196945  0.011283 -0.191897 -0.442654 -0.078345
                                 0.463462  0.735459  0.000000  0.000000 -0.000000 -0.000000  0.000000  0.000000 -0.000000 -0.000000
                                 0.000000  0.000000 -0.000000 -0.000000  0.000000  0.000000 -0.000000 -0.000000  0.000000  0.000000
                                -0.000000 -0.000000  0.000000  0.000000 -0.000000 -0.000000  0.000000  0.000000 -0.000000 -0.000000
                                 0.000000  0.000000 -0.000000 -0.000000  0.000000  0.000000 -0.000000 -0.000000  0.000000  0.000000
                                -0.000000 -0.000000 -0.000000  0.000000  0.000000  0.000000 -0.000000 -0.000000 -0.000000  0.000000
                                 0.000000  0.000000

   3.1   0     0.0548   -0.8007 -0.000000  0.000000 -0.000000  0.000000 -0.000000  0.000000 -0.000000  0.000000 -0.000000  0.000000
                                -0.000000  0.000000 -0.000000  0.000000 -0.000000  0.000000 -0.000000  0.000000 -0.000000  0.000000
                                -0.000000  0.000000 -0.000000  0.000000 -0.000000  0.000000 -0.000002  0.000003 -0.000003  0.000007
                                -0.000017  0.000012  0.000000 -0.000000 -0.000000  0.000001  0.000001 -0.000003 -0.000006  0.000012
                                 0.000023 -0.000044 -0.000069  0.000136  0.000189 -0.000373 -0.000465  0.000916  0.001039 -0.002045
                                -0.002060  0.004055  0.003704 -0.007292 -0.006239  0.012283  0.011608 -0.022854 -0.026530  0.052234
                                 0.043824 -0.086283 -0.039618  0.078004  0.231551 -0.455894 -0.245811  0.483974  0.536332 -1.055964
                                 0.000000  0.000000  0.000000 -0.000000 -0.000000 -0.000000  0.000000  0.000000  0.000000 -0.000000
                                -0.000000 -0.000000

   4.1   0     0.0548   -0.8007 -0.000000  0.000000 -0.000000  0.000000 -0.000000  0.000000 -0.000000  0.000000 -0.000000  0.000000
                                -0.000000  0.000000 -0.000000  0.000000 -0.000000  0.000000 -0.000000  0.000000 -0.000000  0.000001
                                -0.000002  0.000003 -0.000004  0.000005 -0.000005  0.000004 -0.000024  0.000044 -0.000039  0.000097
                                -0.000223  0.000156 -0.000000 -0.000000  0.000001  0.000000 -0.000003 -0.000001  0.000012  0.000006
                                -0.000044 -0.000023  0.000136  0.000069 -0.000373 -0.000189  0.000916  0.000465 -0.002045 -0.001039
                                 0.004055  0.002060 -0.007292 -0.003704  0.012283  0.006239 -0.022854 -0.011608  0.052234  0.026530
                                -0.086283 -0.043824  0.078003  0.039619 -0.455893 -0.231552  0.483972  0.245814 -1.055964 -0.536333
                                 0.000000 -0.000000 -0.000000 -0.000000 -0.000000  0.000000  0.000000  0.000000 -0.000000 -0.000000
                                -0.000000  0.000000

                                   1 2px     1 2px     1 2px     1 2px     1 2px     1 2px     1 2px     1 2px     1 2px     1 2px  
                                   1 2px     1 2px     1 2px     1 2px     1 2px     1 2px     1 2px     1 2px     1 2px     1 2px  
                                   1 2px     1 2px     1 2px     1 2px     1 2px     1 4f1+    1 4f3+    1 4f1+    1 4f3+    1 4f1+ 
                                   1 4f3+    1 4f1+    1 4f3+    1 4f1+    1 4f3+    1 4f1+    1 4f3+    1 6h1+    1 6h3+    1 6h5+ 


   1.2   +    -0.5259   -2.5372  0.000000 -0.000000  0.000000 -0.000000  0.000001 -0.000002  0.000009 -0.000031  0.000096 -0.000275
                                 0.000735 -0.001839  0.004308 -0.009454  0.019649 -0.039209  0.066487 -0.019757 -0.242475  0.103574
                                 0.519167  0.488622  0.074771  0.011069 -0.002488  0.000000  0.000000  0.000000  0.000000  0.000000
                                 0.000000  0.000000  0.000000  0.000000  0.000000 -0.000000 -0.000000 -0.000000 -0.000000 -0.000000

   2.2   0     0.0093   -0.5947 -0.000000  0.000000 -0.000000  0.000000 -0.000000  0.000000 -0.000000  0.000002 -0.000005  0.000014
                                -0.000037  0.000096 -0.000235  0.000557 -0.001316  0.003093 -0.005522 -0.005152  0.053400 -0.042305
                                -0.044023 -0.207478  0.184718 -0.285549  1.186346 -0.000000 -0.000000 -0.000000  0.000000 -0.000000
                                -0.000000 -0.000000  0.000000  0.000000 -0.000000 -0.000000  0.000000  0.000000  0.000000  0.000000

   3.2   0     0.0605   -0.5428 -0.000000  0.000000 -0.000000  0.000000 -0.000000  0.000001 -0.000006  0.000019 -0.000058  0.000167
                                -0.000445  0.001107 -0.002560  0.005477 -0.010855  0.020129 -0.033599  0.035224  0.005799  0.064230
                                -0.299373  0.169018 -0.860110  2.947240 -2.095447 -0.000000 -0.000000 -0.000000 -0.000000 -0.000000
                                -0.000000 -0.000000 -0.000000 -0.000000  0.000000 -0.000000 -0.000000  0.000000  0.000000  0.000000

                                   1 2py     1 2py     1 2py     1 2py     1 2py     1 2py     1 2py     1 2py     1 2py     1 2py  
                                   1 2py     1 2py     1 2py     1 2py     1 2py     1 2py     1 2py     1 2py     1 2py     1 2py  
                                   1 2py     1 2py     1 2py     1 2py     1 2py     1 4f1-    1 4f3-    1 4f1-    1 4f3-    1 4f1- 
                                   1 4f3-    1 4f1-    1 4f3-    1 4f1-    1 4f3-    1 4f1-    1 4f3-    1 6h1-    1 6h3-    1 6h5- 


   1.3   +    -0.5259   -2.5372  0.000000 -0.000000  0.000000 -0.000000  0.000001 -0.000002  0.000009 -0.000031  0.000096 -0.000275
                                 0.000735 -0.001839  0.004308 -0.009454  0.019649 -0.039209  0.066487 -0.019757 -0.242475  0.103574
                                 0.519167  0.488622  0.074771  0.011069 -0.002488  0.000000  0.000000  0.000000  0.000000  0.000000
                                 0.000000  0.000000  0.000000  0.000000  0.000000 -0.000000 -0.000000 -0.000000 -0.000000 -0.000000

   2.3   0     0.0093   -0.5947 -0.000000  0.000000 -0.000000  0.000000 -0.000000  0.000000 -0.000000  0.000002 -0.000005  0.000014
                                -0.000037  0.000096 -0.000235  0.000557 -0.001316  0.003093 -0.005522 -0.005152  0.053400 -0.042305
                                -0.044023 -0.207478  0.184718 -0.285549  1.186346 -0.000000 -0.000000 -0.000000 -0.000000 -0.000000
                                 0.000000 -0.000000 -0.000000 -0.000000  0.000000 -0.000000 -0.000000 -0.000000 -0.000000  0.000000

   3.3   0     0.0605   -0.5428 -0.000000  0.000000 -0.000000  0.000000 -0.000000  0.000001 -0.000006  0.000019 -0.000058  0.000167
                                -0.000445  0.001107 -0.002560  0.005477 -0.010855  0.020129 -0.033599  0.035224  0.005799  0.064230
                                -0.299373  0.169018 -0.860110  2.947240 -2.095447 -0.000000 -0.000000 -0.000000  0.000000 -0.000000
                                -0.000000 -0.000000  0.000000 -0.000000 -0.000000 -0.000000  0.000000 -0.000000 -0.000000  0.000000

                                   1 3d2-    1 3d2-    1 3d2-    1 3d2-    1 3d2-    1 3d2-    1 3d2-    1 3d2-    1 3d2-    1 3d2- 
                                   1 3d2-    1 3d2-    1 3d2-    1 3d2-    1 3d2-    1 3d2-    1 3d2-    1 3d2-    1 3d2-    1 5g2- 
                                   1 5g4-    1 5g2-    1 5g4-    1 5g2-    1 5g4-    1 5g2-    1 5g4- 

   1.4   0     0.0548   -0.8007  0.000000 -0.000001  0.000003 -0.000014  0.000050 -0.000153  0.000418 -0.001027  0.002294 -0.004548
                                 0.008179 -0.013776  0.025633 -0.058585  0.096774 -0.087488  0.511327 -0.542820  1.184362 -0.000000
                                -0.000000  0.000000  0.000000 -0.000000 -0.000000  0.000000  0.000000

   2.4   0     0.1490   -0.8006 -0.000000  0.000001 -0.000007  0.000031 -0.000112  0.000346 -0.000943  0.002326 -0.005165  0.010357
                                -0.018407  0.031920 -0.051320  0.060999 -0.127176  0.614291 -0.822213  2.229701 -1.596935 -0.000000
                                -0.000000  0.000000  0.000000 -0.000000 -0.000000  0.000000  0.000000

                                   1 2pz     1 2pz     1 2pz     1 2pz     1 2pz     1 2pz     1 2pz     1 2pz     1 2pz     1 2pz  
                                   1 2pz     1 2pz     1 2pz     1 2pz     1 2pz     1 2pz     1 2pz     1 2pz     1 2pz     1 2pz  
                                   1 2pz     1 2pz     1 2pz     1 2pz     1 2pz     1 4f0     1 4f2+    1 4f0     1 4f2+    1 4f0  
                                   1 4f2+    1 4f0     1 4f2+    1 4f0     1 4f2+    1 4f0     1 4f2+    1 6h2+    1 6h4+    1 6h0  


   1.5   +    -0.5259   -2.5372  0.000000 -0.000000  0.000000 -0.000000  0.000001 -0.000002  0.000009 -0.000031  0.000096 -0.000275
                                 0.000735 -0.001839  0.004308 -0.009454  0.019649 -0.039209  0.066487 -0.019757 -0.242475  0.103574
                                 0.519167  0.488622  0.074771  0.011069 -0.002488  0.000000  0.000000  0.000000  0.000000  0.000000
                                 0.000000  0.000000  0.000000  0.000000  0.000000 -0.000000 -0.000000 -0.000000 -0.000000 -0.000000

   2.5   0     0.0093   -0.5947 -0.000000  0.000000 -0.000000  0.000000 -0.000000  0.000000 -0.000000  0.000002 -0.000005  0.000014
                                -0.000037  0.000096 -0.000235  0.000557 -0.001316  0.003093 -0.005522 -0.005152  0.053400 -0.042305
                                -0.044023 -0.207478  0.184718 -0.285549  1.186346 -0.000000 -0.000000 -0.000000 -0.000000 -0.000000
                                 0.000000 -0.000000 -0.000000  0.000000  0.000000 -0.000000 -0.000000 -0.000000  0.000000  0.000000

   3.5   0     0.0605   -0.5428 -0.000000  0.000000 -0.000000  0.000000 -0.000000  0.000001 -0.000006  0.000019 -0.000058  0.000167
                                -0.000445  0.001107 -0.002560  0.005477 -0.010855  0.020129 -0.033599  0.035224  0.005799  0.064230
                                -0.299373  0.169018 -0.860110  2.947240 -2.095447 -0.000000 -0.000000 -0.000000 -0.000000 -0.000000
                                -0.000000 -0.000000 -0.000000 -0.000000 -0.000000 -0.000000 -0.000000 -0.000000  0.000000  0.000000

                                   1 3d1+    1 3d1+    1 3d1+    1 3d1+    1 3d1+    1 3d1+    1 3d1+    1 3d1+    1 3d1+    1 3d1+ 
                                   1 3d1+    1 3d1+    1 3d1+    1 3d1+    1 3d1+    1 3d1+    1 3d1+    1 3d1+    1 3d1+    1 5g1+ 
                                   1 5g3+    1 5g1+    1 5g3+    1 5g1+    1 5g3+    1 5g1+    1 5g3+ 

   1.6   0     0.0548   -0.8007  0.000000 -0.000001  0.000003 -0.000014  0.000050 -0.000153  0.000418 -0.001027  0.002294 -0.004548
                                 0.008179 -0.013776  0.025633 -0.058585  0.096774 -0.087488  0.511327 -0.542820  1.184362 -0.000000
                                -0.000000  0.000000  0.000000 -0.000000 -0.000000  0.000000  0.000000

   2.6   0     0.1490   -0.8006 -0.000000  0.000001 -0.000007  0.000031 -0.000112  0.000346 -0.000943  0.002326 -0.005165  0.010357
                                -0.018407  0.031920 -0.051320  0.060999 -0.127176  0.614291 -0.822213  2.229701 -1.596935 -0.000000
                                -0.000000  0.000000  0.000000 -0.000000 -0.000000  0.000000  0.000000

                                   1 3d1-    1 3d1-    1 3d1-    1 3d1-    1 3d1-    1 3d1-    1 3d1-    1 3d1-    1 3d1-    1 3d1- 
                                   1 3d1-    1 3d1-    1 3d1-    1 3d1-    1 3d1-    1 3d1-    1 3d1-    1 3d1-    1 3d1-    1 5g1- 
                                   1 5g3-    1 5g1-    1 5g3-    1 5g1-    1 5g3-    1 5g1-    1 5g3- 

   1.7   0     0.0548   -0.8007  0.000000 -0.000001  0.000003 -0.000014  0.000050 -0.000153  0.000418 -0.001027  0.002294 -0.004548
                                 0.008179 -0.013776  0.025633 -0.058585  0.096774 -0.087488  0.511327 -0.542820  1.184362 -0.000000
                                -0.000000  0.000000  0.000000 -0.000000 -0.000000  0.000000  0.000000

   2.7   0     0.1490   -0.8006 -0.000000  0.000001 -0.000007  0.000031 -0.000112  0.000346 -0.000943  0.002326 -0.005165  0.010357
                                -0.018407  0.031920 -0.051320  0.060999 -0.127176  0.614291 -0.822213  2.229701 -1.596935 -0.000000
                                -0.000000  0.000000  0.000000 -0.000000 -0.000000  0.000000  0.000000

                                   1 4f2-    1 4f2-    1 4f2-    1 4f2-    1 4f2-    1 4f2-    1 6h4-    1 6h2- 

   1.8   0     0.2999   -0.5923 -0.000420  0.023045 -0.010010  0.129819 -0.225675  1.119201 -0.000000 -0.000000

   2.8   0     0.7265   -0.2856  0.017055  0.061998  0.191079  0.004848  1.264145 -0.823828  0.000000  0.000000

 HOMO      2.1    -0.119056 =      -3.2397eV
 LUMO      2.3     0.009285 =       0.2526eV
 LUMO-HOMO         0.128341 =       3.4923eV


 **********************************************************************************************************************************
 DATASETS  * FILE   NREC   LENGTH (MB)   RECORD NAMES
              1      20       22.23       500      610      700      900      950      970     1000      129      960     1100   
                                          VAR    BASINP    GEOM    SYMINP    ZMAT    AOBASIS   BASIS     P2S    ABASIS      S 
                                         1400     1410     1420     1200     1210     1080     1600     1650     1700     1380   
                                           T        V       ECP      H0       H01     AOSYM     SMH    MOLCAS    OPER     JKOP   

              2       7       11.89       200      700     1000      520     4202     5202     2101   
                                        OPTIONS   GEOM     BASIS   MCVARS     RHF     MCSCF     RHF  

 PROGRAMS   *        TOTAL       RHF  RCCSD(T)       RHF     MULTI       POP       RHF       INT
 CPU TIMES  *        50.39      0.96      4.17      0.25      0.62      0.00      0.69     43.22
 REAL TIME  *        61.02 SEC
 DISK USED  *         2.04 GB      
 SF USED    *       321.04 MB      
 GA USED    *         0.00 MB       (max)       0.00 MB       (current)
 **********************************************************************************************************************************


 PROGRAM * POP (Mulliken population analysis)

 
 Density matrix read from record         4202.2  Type=RHF/CHARGE (state 1.8)
 
 Population analysis by basis function type

 Unique atom        s        p        d        f        g    Total    Charge
   1  TE      3.00000  3.00000  0.00000  0.00000  0.00000  6.00000  + 0.00000


 **********************************************************************************************************************************
 DATASETS  * FILE   NREC   LENGTH (MB)   RECORD NAMES
              1      20       22.23       500      610      700      900      950      970     1000      129      960     1100   
                                          VAR    BASINP    GEOM    SYMINP    ZMAT    AOBASIS   BASIS     P2S    ABASIS      S 
                                         1400     1410     1420     1200     1210     1080     1600     1650     1700     1380   
                                           T        V       ECP      H0       H01     AOSYM     SMH    MOLCAS    OPER     JKOP   

              2       7       11.89       200      700     1000      520     4202     5202     2101   
                                        OPTIONS   GEOM     BASIS   MCVARS     RHF     MCSCF     RHF  

 PROGRAMS   *        TOTAL       POP       RHF  RCCSD(T)       RHF     MULTI       POP       RHF       INT
 CPU TIMES  *        50.39      0.00      0.96      4.17      0.25      0.62      0.00      0.69     43.22
 REAL TIME  *        61.02 SEC
 DISK USED  *         2.04 GB      
 SF USED    *       321.04 MB      
 GA USED    *         0.00 MB       (max)       0.00 MB       (current)
 **********************************************************************************************************************************


 PROGRAM * MULTI (Direct Multiconfiguration SCF)       Authors: P.J. Knowles, H.-J. Werner (1984)     S.T. Elbert (1988)


 Number of closed-shell orbitals:   1 (   1   0   0   0   0   0   0   0 )
 Number of active  orbitals:        4 (   1   1   1   0   1   0   0   0 )
 Number of external orbitals:     286 (  80  39  39  27  39  27  27   8 )

 State symmetry 1

 Number of electrons:     4    Spin symmetry=Quintet   Space symmetry=8
 Number of states:        1
 Number of CSFs:          1   (1 determinants, 1 intermediate states)

 Molecular orbitals read from record     4202.2  Type=RHF/CANONICAL (state 1.8)

 EXTRA SYMMETRY OF MOS IN SYMMETRY 1:   1 1 3 2 1 2 3 1 2 3   4 6 5 2 3 1 2 3 4 6   5 1 2 3 5 6 4 1 3 2   1 5 6 4 3 2 1 3 2 1
                                        3 2 1 2 3 1 3 2 1 2   3 1 1 3 2 1 3 2 1 2   3 1 2 3 1 1 3 2 1 2   3 1 1 1 1 1 1 1 1 1
                                        1 1
 EXTRA SYMMETRY OF MOS IN SYMMETRY 2:   1 1 1 1 2 3 2 3 1 2   3 1 2 3 6 5 4 1 3 2   2 3 1 1 1 1 1 1 1 1   1 1 1 1 1 1 1 1 1 1
 EXTRA SYMMETRY OF MOS IN SYMMETRY 3:   1 1 1 1 2 3 2 3 1 2   3 1 2 3 6 5 4 1 3 2   2 3 1 1 1 1 1 1 1 1   1 1 1 1 1 1 1 1 1 1
 EXTRA SYMMETRY OF MOS IN SYMMETRY 4:   1 1 1 2 3 1 1 2 3 1   3 2 1 3 2 1 1 1 1 1   1 1 1 1 1 1 1
 EXTRA SYMMETRY OF MOS IN SYMMETRY 5:   1 1 1 1 2 3 3 2 1 3   2 1 3 2 5 4 6 1 3 2   3 2 1 1 1 1 1 1 1 1   1 1 1 1 1 1 1 1 1 1
 EXTRA SYMMETRY OF MOS IN SYMMETRY 6:   1 1 1 2 3 1 1 2 3 1   3 2 1 3 2 1 1 1 1 1   1 1 1 1 1 1 1
 EXTRA SYMMETRY OF MOS IN SYMMETRY 7:   1 1 1 2 3 1 1 2 3 1   3 2 1 3 2 1 1 1 1 1   1 1 1 1 1 1 1
 EXTRA SYMMETRY OF MOS IN SYMMETRY 8:   1 1 1 1 2 3 1 1

 Wavefunction dump at record             5202.2

 Convergence thresholds  0.10E-01 (gradient)  0.10E-05 (energy)  0.10E-02 (step length)

 Number of orbital rotations:      278   (     1 Core/Active     80 Core/Virtual   0 Active/Active    197 Active/Virtual)
 Total number of variables:        279


 ITER. MIC  NCI  NEG     ENERGY(VAR)     ENERGY(PROJ)   ENERGY CHANGE     GRAD(0)  GRAD(ORB)   GRAD(CI)     STEP       TIME

   1   21    4    0      -7.71148698      -7.71148698   -0.00000000    0.00000103 0.00000000 0.00000000  0.21D-05      0.11

 ** WVFN ****  CONVERGENCE REACHED, FINAL GRADIENT:  0.87D-12


 First order charge density matrix for state 1.8 saved on record  5202.2 (density set 1)

 Results for state 1.8
 =====================

 !MCSCF STATE 1.8 Energy               -7.711486982013
 Nuclear energy                         0.00000000
 Kinetic energy                         2.38819757
 One electron energy                  -11.99644865
 Two electron energy                    4.28496167
 Virial ratio                           4.22899876

 !MCSCF STATE 1.8 Dipole moment         0.00000000     0.00000000     0.00000000
 Dipole moment /Debye                   0.00000000     0.00000000     0.00000000


 NATURAL ORBITALS
 ================

   Orb     Occ        Energy       Coefficients

                                   1 1s      1 1s      1 1s      1 1s      1 1s      1 1s      1 1s      1 1s      1 1s      1 1s   
                                   1 1s      1 1s      1 1s      1 1s      1 1s      1 1s      1 1s      1 1s      1 1s      1 1s   
                                   1 1s      1 1s      1 1s      1 1s      1 1s      1 1s      1 1s      1 1s      1 1s      1 1s   
                                   1 1s      1 1s      1 3d0     1 3d2+    1 3d0     1 3d2+    1 3d0     1 3d2+    1 3d0     1 3d2+ 
                                   1 3d0     1 3d2+    1 3d0     1 3d2+    1 3d0     1 3d2+    1 3d0     1 3d2+    1 3d0     1 3d2+ 
                                   1 3d0     1 3d2+    1 3d0     1 3d2+    1 3d0     1 3d2+    1 3d0     1 3d2+    1 3d0     1 3d2+ 
                                   1 3d0     1 3d2+    1 3d0     1 3d2+    1 3d0     1 3d2+    1 3d0     1 3d2+    1 3d0     1 3d2+ 
                                   1 5g0     1 5g4+    1 5g2+    1 5g0     1 5g4+    1 5g2+    1 5g0     1 5g4+    1 5g2+    1 5g0  
                                   1 5g4+    1 5g2+ 

   1.1  2.00000    -0.864947    -0.000000  0.000000 -0.000000  0.000000 -0.000000  0.000000 -0.000000  0.000000 -0.000001  0.000003
                                -0.000006  0.000014 -0.000030  0.000071 -0.000162  0.000410 -0.000986  0.002518 -0.005907  0.013384
                                -0.026523  0.047337 -0.074204  0.087319  0.106071 -0.563772 -0.090256  0.575777  0.668983  0.086792
                                 0.005810  0.000141  0.000000  0.000000  0.000000  0.000000  0.000000  0.000000  0.000000  0.000000
                                 0.000000  0.000000  0.000000  0.000000  0.000000  0.000000  0.000000  0.000000  0.000000  0.000000
                                 0.000000  0.000000  0.000000  0.000000  0.000000  0.000000  0.000000  0.000000  0.000000  0.000000
                                 0.000000  0.000000  0.000000  0.000000  0.000000  0.000000  0.000000  0.000000  0.000000  0.000000
                                 0.000000  0.000000  0.000000  0.000000  0.000000  0.000000  0.000000  0.000000  0.000000  0.000000
                                 0.000000  0.000000

   2.1  1.00000    -0.044216     0.000000 -0.000000  0.000000 -0.000000  0.000000 -0.000000  0.000000 -0.000000  0.000000 -0.000001
                                 0.000002 -0.000003  0.000007 -0.000018  0.000040 -0.000103  0.000245 -0.000632  0.001480 -0.003397
                                 0.006800 -0.012440  0.020178 -0.024395 -0.037919  0.196947  0.011280 -0.191893 -0.442664 -0.078333
                                 0.463457  0.735459  0.000000  0.000000  0.000000  0.000000  0.000000  0.000000  0.000000  0.000000
[...]
                                 0.000000 -0.000588  0.000000  0.001316  0.000000 -0.001375  0.000000  0.009989  0.000000 -0.076177
                                 0.000000  0.116267  0.000000  0.463801  0.000000  0.435153  0.000000  0.120812  0.000000 -0.000094
                                 0.000000  0.000000  0.000000  0.000000  0.000000  0.000000  0.000000  0.000000  0.000000  0.000000
                                 0.000000  0.000000

                                   1 3d2-    1 3d2-    1 3d2-    1 3d2-    1 3d2-    1 3d2-    1 3d2-    1 3d2-    1 3d2-    1 3d2- 
                                   1 3d2-    1 3d2-    1 3d2-    1 3d2-    1 3d2-    1 3d2-    1 3d2-    1 3d2-    1 3d2-    1 5g2- 
                                   1 5g4-    1 5g2-    1 5g4-    1 5g2-    1 5g4-    1 5g2-    1 5g4- 

   1.4  0.20000    -0.547573     0.000000 -0.000000  0.000000 -0.000002  0.000007 -0.000022  0.000063 -0.000144  0.000352 -0.000588
                                 0.001316 -0.001375  0.009989 -0.076177  0.116267  0.463801  0.435153  0.120812 -0.000094  0.000000
                                 0.000000  0.000000  0.000000  0.000000  0.000000  0.000000  0.000000

                                   1 3d1+    1 3d1+    1 3d1+    1 3d1+    1 3d1+    1 3d1+    1 3d1+    1 3d1+    1 3d1+    1 3d1+ 
                                   1 3d1+    1 3d1+    1 3d1+    1 3d1+    1 3d1+    1 3d1+    1 3d1+    1 3d1+    1 3d1+    1 5g1+ 
                                   1 5g3+    1 5g1+    1 5g3+    1 5g1+    1 5g3+    1 5g1+    1 5g3+ 

   1.6  0.20000    -0.547573     0.000000 -0.000000  0.000000 -0.000002  0.000007 -0.000022  0.000063 -0.000144  0.000352 -0.000588
                                 0.001316 -0.001375  0.009989 -0.076177  0.116267  0.463801  0.435153  0.120812 -0.000094  0.000000
                                 0.000000  0.000000  0.000000  0.000000  0.000000  0.000000  0.000000

                                   1 3d1-    1 3d1-    1 3d1-    1 3d1-    1 3d1-    1 3d1-    1 3d1-    1 3d1-    1 3d1-    1 3d1- 
                                   1 3d1-    1 3d1-    1 3d1-    1 3d1-    1 3d1-    1 3d1-    1 3d1-    1 3d1-    1 3d1-    1 5g1- 
                                   1 5g3-    1 5g1-    1 5g3-    1 5g1-    1 5g3-    1 5g1-    1 5g3- 

   1.7  0.20000    -0.547573     0.000000 -0.000000  0.000000 -0.000002  0.000007 -0.000022  0.000063 -0.000144  0.000352 -0.000588
                                 0.001316 -0.001375  0.009989 -0.076177  0.116267  0.463801  0.435153  0.120812 -0.000094  0.000000
                                 0.000000  0.000000  0.000000  0.000000  0.000000  0.000000  0.000000

 Total charge:   3.000000000000
 

 EXTRA SYMMETRY OF MOS IN SYMMETRY 1:   1 2 3 1 1 3 2 1 3 2   4 5 6 2 3 1 2 3 4 5   6 1 2 3 5 6 4 1 2 3   1 5 6 4 2 3 1 2 3 1
                                        2 3 1 2 3 1 2 3 1 2   3 1 1 2 3 1 3 2 1 3   2 1 3 2 1 1 3 2 1 2   3 1 1 1 1 1 1 1 1 1
                                        1 1
 EXTRA SYMMETRY OF MOS IN SYMMETRY 2:   1 1 2 3 1 1 2 3 1 3   2 1 3 2 6 5 4 1 3 2   3 2 1 1 1 1 1 1 1 1   1 1 1 1 1 1 1 1 1 1
 EXTRA SYMMETRY OF MOS IN SYMMETRY 3:   1 1 2 3 1 1 3 2 1 2   3 1 3 2 6 5 4 1 3 2   3 2 1 1 1 1 1 1 1 1   1 1 1 1 1 1 1 1 1 1
 EXTRA SYMMETRY OF MOS IN SYMMETRY 4:   1 1 1 2 3 1 1 3 2 1   3 2 1 3 2 1 1 1 1 1   1 1 1 1 1 1 1
 EXTRA SYMMETRY OF MOS IN SYMMETRY 5:   1 1 3 2 1 1 2 3 1 2   3 1 2 3 5 4 6 1 3 2   3 2 1 1 1 1 1 1 1 1   1 1 1 1 1 1 1 1 1 1
 EXTRA SYMMETRY OF MOS IN SYMMETRY 6:   1 1 1 3 2 1 1 3 2 1   3 2 1 3 2 1 1 1 1 1   1 1 1 1 1 1 1
 EXTRA SYMMETRY OF MOS IN SYMMETRY 7:   1 1 1 3 2 1 1 3 2 1   3 2 1 3 2 1 1 1 1 1   1 1 1 1 1 1 1
 EXTRA SYMMETRY OF MOS IN SYMMETRY 8:   1 1 1 1 2 3 1 1

 Natural orbital dump (state averaged) at molpro section  5202.2    (Orbital set 2)


 CI vector for state symmetry 1
 ==============================

 0a 0 0 0          0.0000000   1.0000000
 a0 0 0 0          1.0000000   0.0000000

 TOTAL ENERGIES                        -5.39876475    -5.39876475

 CI vector for state symmetry 2
 ==============================

 00 a 0 0          1.0000000

 TOTAL ENERGIES                        -5.39876475

 CI vector for state symmetry 3
 ==============================

 00 0 a 0          1.0000000

 TOTAL ENERGIES                        -5.39876475

 CI vector for state symmetry 4
 ==============================

 00 0 0 a          1.0000000

 TOTAL ENERGIES                        -5.39876475



 **********************************************************************************************************************************
 DATASETS  * FILE   NREC   LENGTH (MB)   RECORD NAMES
              1      20       26.87       500      610      700      900      950      970     1000      129      960     1100   
                                          VAR    BASINP    GEOM    SYMINP    ZMAT    AOBASIS   BASIS     P2S    ABASIS      S 
                                         1400     1410     1420     1200     1210     1080     1600     1650     1700     1380   
                                           T        V       ECP      H0       H01     AOSYM     SMH    MOLCAS    OPER     JKOP   

              2      16       36.32       200      700     1000      520     4202     5202     2101     2103     2105     2107   
                                        OPTIONS   GEOM     BASIS   MCVARS     RHF     MCSCF     RHF      RHF      RHF      RHF  
                                         2109     5202(1)  2111     2113     2115     2117   
                                          RHF     MCSCF     RHF      RHF      RHF      RHF  

 PROGRAMS   *        TOTAL     MULTI       POP       RHF  RCCSD(T)       RHF     MULTI       POP       RHF  RCCSD(T)       RHF
 CPU TIMES  *        96.79      0.55      0.00      1.05      0.83      0.21      0.09      0.00      5.46      3.71      0.19
 REAL TIME  *       148.20 SEC
 DISK USED  *         2.27 GB      
 SF USED    *       409.86 MB      
 GA USED    *         0.00 MB       (max)       0.00 MB       (current)
 **********************************************************************************************************************************


 PROGRAM * RHF-SCF (OPEN SHELL)       Authors: W. Meyer, H.-J. Werner


 NUMBER OF ELECTRONS:       2+    1-    SPACE SYMMETRY=1    SPIN SYMMETRY: Doublet 
 CONVERGENCE THRESHOLDS:    1.00E-05 (Density)    1.00E-07 (Energy)
 MAX. NUMBER OF ITERATIONS:        0
 INTERPOLATION TYPE:            DIIS
 INTERPOLATION STEPS:              2 (START)      1 (STEP)
 LEVEL SHIFTS:                 -0.60 (CLOSED) -0.30 (OPEN) 

 Number of closed-shell orbitals:    1 (   1   0   0   0   0   0   0   0 )
 Number of open-shell orbitals:      1 (   1   0   0   0   0   0   0   0 )


 Molecular orbitals read from record     5202.2  Type=MCSCF/NATURAL (state averaged)

 Molecular orbital dump at record        2119.2

 ITERATION    DDIFF          GRAD             ENERGY        2-EL.EN.            DIPOLE MOMENTS         DIIS   ORB.
    1      0.000D+00      0.000D+00        -5.39876475      2.208762    0.00000    0.00000    0.00000    0    start

 Final alpha occupancy:   2   0   0   0   0   0   0   0
 Final beta  occupancy:   1   0   0   0   0   0   0   0

 !RHF STATE 1.1 Energy                 -5.398764749700
 Nuclear energy                         0.00000000
 One-electron energy                   -6.50314577
 Two-electron energy                    1.10438102
 Virial quotient                       -3.56511236
 !RHF STATE 1.1 Dipole moment           0.00000000     0.00000000     0.00000000
 Dipole moment /Debye                   0.00000000     0.00000000     0.00000000

 Orbital energies:

         1.1          2.1          3.1          4.1
     -1.750068    -0.547573    -0.547573    -0.529072

         1.2          2.2
     -1.019083    -0.415605

         1.3          2.3
     -1.019083    -0.415605

         1.4          2.4
     -0.547573    -0.283666

         1.5          2.5
     -1.019083    -0.415605

         1.6          2.6
     -0.547573    -0.283666

         1.7          2.7
     -0.547573    -0.283666

         1.8          2.8
     -0.303566    -0.042763

 HOMO      2.1    -0.547573 =     -14.9002eV
 LUMO      1.2    -1.019083 =     -27.7307eV
 LUMO-HOMO        -0.471509 =     -12.8304eV


 **********************************************************************************************************************************
 DATASETS  * FILE   NREC   LENGTH (MB)   RECORD NAMES
              1      20       26.87       500      610      700      900      950      970     1000      129      960     1100   
                                          VAR    BASINP    GEOM    SYMINP    ZMAT    AOBASIS   BASIS     P2S    ABASIS      S 
                                         1400     1410     1420     1200     1210     1080     1600     1650     1700     1380   
                                           T        V       ECP      H0       H01     AOSYM     SMH    MOLCAS    OPER     JKOP   

              2      17       39.49       200      700     1000      520     4202     5202     2101     2103     2105     2107   
                                        OPTIONS   GEOM     BASIS   MCVARS     RHF     MCSCF     RHF      RHF      RHF      RHF  
                                         2109     5202(1)  2111     2113     2115     2117     2119   
                                          RHF     MCSCF     RHF      RHF      RHF      RHF      RHF  

 PROGRAMS   *        TOTAL       RHF     MULTI       POP       RHF  RCCSD(T)       RHF     MULTI       POP       RHF  RCCSD(T)
 CPU TIMES  *        96.84      0.05      0.55      0.00      1.05      0.83      0.21      0.09      0.00      5.46      3.71
 REAL TIME  *       148.63 SEC
 DISK USED  *         2.27 GB      
 SF USED    *       409.86 MB      
 GA USED    *         0.00 MB       (max)       0.00 MB       (current)
 **********************************************************************************************************************************
 SETTING SCF(10)        =        -5.39876475  AU                              
 SETTING _CC_NORM_MAX   =         2.00000000                                  


 PROGRAM * CCSD (Restricted open-shell coupled cluster)     Authors: C. Hampel, H.-J. Werner, 1991, M. Deegan, P.J. Knowles, 1992


 Convergence thresholds:  THRVAR = 1.00D-08  THRDEN = 1.00D-06

 CCSD(T)     terms to be evaluated (factor= 1.000)


 Number of closed-shell orbitals:   1 (   1   0   0   0   0   0   0   0 )
 Number of active  orbitals:        1 (   1   0   0   0   0   0   0   0 )
 Number of external orbitals:     289 (  80  40  40  27  40  27  27   8 )

 Memory could be reduced to 27.13 Mwords without degradation in triples

 Number of N-1 electron functions:               3
 Number of N-2 electron functions:               3
 Number of singly external CSFs:               243
 Number of doubly external CSFs:             33885
 Total number of CSFs:                       34128

 Molecular orbitals read from record     2119.2  Type=RHF/CANONICAL (state 1.1)

 Integral transformation finished. Total CPU:   0.21 sec, npass=  1  Memory used:   2.25 MW

 Starting RMP2 calculation

 Wavefunction is spin-projected

 ITER.      SQ.NORM     CORR.ENERGY   TOTAL ENERGY   ENERGY CHANGE        DEN1      VAR(S)    VAR(P)  DIIS     TIME
   1      1.05365074    -0.06496003    -5.46372478    -0.06496003    -0.00155869  0.15D-05  0.17D-02  1  1     0.21
   2      1.05915271    -0.06688168    -5.46564643    -0.00192165    -0.00002073  0.24D-07  0.26D-04  2  2     0.21
   3      1.05979964    -0.06702464    -5.46578939    -0.00014296    -0.00000004  0.13D-09  0.35D-07  3  3     0.22
   4      1.05981488    -0.06702739    -5.46579214    -0.00000276    -0.00000000  0.12D-12  0.65D-10  4  4     0.22
   5      1.05981517    -0.06702747    -5.46579222    -0.00000008    -0.00000000  0.65D-15  0.11D-11  5  5     0.22

 Norm of t1 vector:      0.01684421      S-energy:    -0.00046402      T1 diagnostic:  0.00585182
 Norm of t2 vector:      0.24399066      P-energy:    -0.06656345
                                         Alpha-Beta:  -0.05951759
                                         Alpha-Alpha: -0.00704586
                                         Beta-Beta:    0.00000000

 Spin contamination <S**2-Sz**2-Sz>     0.00000000
  Reference energy                     -5.398764749700
  RHF-RMP2 correlation energy          -0.067027470609
 !RHF-RMP2 energy                      -5.465792220309
 (NB above energy spin projected)

 Starting RCCSD calculation

 ITER.      SQ.NORM     CORR.ENERGY   TOTAL ENERGY   ENERGY CHANGE        DEN1      VAR(S)    VAR(P)  DIIS     TIME
   1      1.08830849    -0.07379768    -5.47256243    -0.07379768    -0.01197507  0.35D-03  0.14D-01  1  1     0.28
   2      1.17727453    -0.08716805    -5.48593280    -0.01337037    -0.01013357  0.27D-03  0.14D-01  2  2     0.33
   3      1.16512657    -0.08597867    -5.48474342     0.00118938    -0.01004954  0.28D-03  0.14D-01  3  3     0.38
   4      2.27504126     0.00774785    -5.39101689     0.09372652    -0.00278600  0.39D-03  0.28D-02  4  4     0.41
   5      1.06168940    -0.05735096    -5.45611571    -0.06509882    -0.00011861  0.12D-04  0.60D-04  5  5     0.47
   6      1.22776549    -0.03698949    -5.43575424     0.02036147    -0.00001538  0.10D-05  0.89D-05  6  6     0.53
   7      1.38969947    -0.02669956    -5.42546431     0.01028993    -0.00000285  0.51D-06  0.15D-05  6  1     0.57
   8      1.34837136    -0.02909685    -5.42786160    -0.00239729    -0.00000043  0.53D-07  0.28D-06  6  5     0.62
   9      1.38127282    -0.02721599    -5.42598074     0.00188086    -0.00000004  0.12D-07  0.33D-07  6  2     0.67
  10      1.37952301    -0.02731371    -5.42607846    -0.00009772    -0.00000002  0.97D-08  0.24D-07  6  6     0.72
  11      1.38039962    -0.02726493    -5.42602968     0.00004878    -0.00000002  0.93D-08  0.27D-07  6  3     0.78
  12      1.38062027    -0.02725132    -5.42601607     0.00001361    -0.00000001  0.10D-07  0.12D-07  6  2     0.83
  13      1.38000721    -0.02728557    -5.42605032    -0.00003425    -0.00000001  0.11D-07  0.11D-08  6  4     0.88
  14      1.38043422    -0.02726224    -5.42602699     0.00002333    -0.00000000  0.11D-07  0.25D-09  6  1     0.93
  15      1.38043749    -0.02726237    -5.42602711    -0.00000013    -0.00000000  0.10D-07  0.19D-09  6  5     0.98
  16      1.38044025    -0.02726251    -5.42602726    -0.00000014    -0.00000000  0.80D-08  0.22D-09  6  6     1.03

 Norm of t1 vector:      0.05479061      S-energy:    -0.00090662      T1 diagnostic:  0.02148239
                                                                       D1 diagnostic:  0.02717831
 Norm of t2 vector:      0.61436002      P-energy:    -0.02635588
                                         Alpha-Beta:  -0.01761582
                                         Alpha-Alpha: -0.00874006
                                         Beta-Beta:    0.00000000

 Doubles amplitudes (print threshold =  0.500E-01):

         I         J         SYM. A    SYM. B    A         B      T(IJ, AB) [Alpha-Beta]

         1         1         2         2         1         1     -0.09528374
         1         1         3         3         1         1     -0.09528374
         1         1         5         5         1         1     -0.09057058
         2         1         2         2         1         1     -0.22637988
         2         1         2         2         3         1     -0.06122273
         2         1         3         3         1         1     -0.22637988
         2         1         3         3         3         1      0.06122273
         2         1         5         5         1         1      0.44828059
         2         1         5         5         4         1     -0.07513908
         2         1         5         5         7         1     -0.05087657

 Spin contamination <S**2-Sz**2-Sz>     0.00000000

 Memory could be reduced to 27.09 Mwords without degradation in triples
 

 RESULTS
 =======

  Reference energy                     -5.398764749700
  RCCSD singles energy                 -0.000906623682
  RCCSD pair energy                    -0.026355882768
  RCCSD correlation energy             -0.027262506450
  Triples (T) contribution             -0.007927271497
  Total correlation energy             -0.035189777947
 
  RHF-RCCSD energy                     -5.426027256150
  RHF-RCCSD[T] energy                  -5.434028286265
  RHF-RCCSD-T energy                   -5.433988890102
 !RHF-RCCSD(T) energy                  -5.433954527647

 Program statistics:

 Available memory in ccsd:               511999848
 Min. memory needed in ccsd:                457855
 Max. memory used in ccsd:                  471045
 Max. memory used in cckext:                586909 (16 integral passes)
 Max. memory used in cckint:               2253996 ( 1 integral passes)



 **********************************************************************************************************************************
 DATASETS  * FILE   NREC   LENGTH (MB)   RECORD NAMES
              1      20       26.87       500      610      700      900      950      970     1000      129      960     1100   
                                          VAR    BASINP    GEOM    SYMINP    ZMAT    AOBASIS   BASIS     P2S    ABASIS      S 
                                         1400     1410     1420     1200     1210     1080     1600     1650     1700     1380   
                                           T        V       ECP      H0       H01     AOSYM     SMH    MOLCAS    OPER     JKOP   

              2      17       39.49       200      700     1000      520     4202     5202     2101     2103     2105     2107   
                                        OPTIONS   GEOM     BASIS   MCVARS     RHF     MCSCF     RHF      RHF      RHF      RHF  
                                         2109     5202(1)  2111     2113     2115     2117     2119   
                                          RHF     MCSCF     RHF      RHF      RHF      RHF      RHF  

 PROGRAMS   *        TOTAL  RCCSD(T)       RHF     MULTI       POP       RHF  RCCSD(T)       RHF     MULTI       POP       RHF
 CPU TIMES  *        98.78      1.94      0.05      0.55      0.00      1.05      0.83      0.21      0.09      0.00      5.46
 REAL TIME  *       152.09 SEC
 DISK USED  *         2.35 GB      
 SF USED    *       409.86 MB      
 GA USED    *         0.00 MB       (max)       0.00 MB       (current)
 **********************************************************************************************************************************
 SETTING CCSD(10)       =        -5.43395453  AU                              
 Output type csv         
                                                                                                                                                                                                                                                                

      SCF,CCSD
   -7.86989591,   -8.00734584
   -7.71148698,   -7.81805372
   -7.91028507,   -8.08278618
   -7.59340038,   -7.68845540
   -7.24565834,   -7.37147937
   -7.03126278,   -7.06931362
   -6.91474903,   -6.99366968
   -5.92538506,   -5.98600847
   -4.60564144,   -4.64642146
   -5.39876475,   -5.43395453
                                                  

 RCCSD(T)/USERDEF energy=     -5.433954527647

        RCCSD(T)        RHF-SCF         MULTI           RHF-SCF         RCCSD(T)        RHF-SCF         MULTI           RHF-SCF 
     -5.43395453     -5.39876475     -5.39876475     -5.39901227     -4.64642146     -4.60564144     -4.60564144     -4.60564144
 **********************************************************************************************************************************
 Molpro calculation terminated
 Variable memory released
