
 Primary working directories    : /global/cscratch1/sd/aannabe
 Secondary working directories  : /global/cscratch1/sd/aannabe
 Wavefunction directory         : /global/homes/a/aannabe/wfu/
 Main file repository           : /global/cscratch1/sd/aannabe/

 SHA1      : 19cd028119e0e09f93f0674bd8af7968d9b3eff6
 NAME      : 2015.1.36
 ARCHNAME  : linux/x86_64
 FC        : /opt/cray/pe/craype/2.5.14/bin/ftn
 BLASLIB   : -L/opt/intel/compilers_and_libraries_2018.1.163/linux/mkl/lib/intel64 -Wl,-_start-group -lmkl_intel_ilp64 -lmkl_intel_thread -lmkl_core -Wl,-_end-group -liomp5
 id        : lbl

 Nodes     nprocs
 nid12752    23
 Number of processes for MPI-2 version of Molpro:   nprocs(total)=   24   nprocs(compute)=   23   nprocs(helper)=    1

 Using customized tuning parameters: mindgm=7; mindgv=16; mindgc=1; mindgr=1; noblas=0; minvec=7
 default implementation of scratch files=sf  

 ***,Calculation for Ag atom, singlet and triplet
 memory,512,m
 geometry={
 1
 Pd
 Pd  0.0 0.0 0.0
 }
 
 basis={
 Including file /global/cscratch1/sd/aannabe/repos/heavy_element_ecps/Pd/arep/atoms/MDFSTU/basis/mdfstu
 Including file /global/cscratch1/sd/aannabe/repos/heavy_element_ecps/Pd/arep/atoms/MDFSTU/basis/5z.basis
 }
 
 Including file /global/cscratch1/sd/aannabe/repos/heavy_element_ecps/Pd/arep/atoms/MDFSTU/basis/states.proc
 
 do i=1,14
     if (i.eq.1) then
         Idten
     else if (i.eq.2) then
         EAs1dten
     else if (i.eq.3) then
         EAs2d9
     else if (i.eq.4) then
         Is1d9
     else if (i.eq.5) then
         Is2d8
     else if (i.eq.6) then
         IId9
     else if (i.eq.7) then
         IIs1d8
     else if (i.eq.8) then
         IIId8
     else if (i.eq.9) then
         IVd7
     else if (i.eq.10) then
         Vd6
     else if (i.eq.11) then
         VId5
     else if (i.eq.12) then
         XIKr
     else if (i.eq.13) then
         XIVp3
     else if (i.eq.14) then
         XVIIs2
     endif
     scf(i)=energy
     _CC_NORM_MAX=2.0
    {rccsd(t),maxit=100;core}
     ccsd(i)=energy
 enddo
 
 table,scf,ccsd
 type,csv
 save

 Variables initialized (889), CPU time= 0.01 sec
 Commands  initialized (702), CPU time= 0.02 sec, 572 directives.
 Default parameters read. Elapsed time= 0.31 sec

 Checking input...
 Passed
1


                                         ***  PROGRAM SYSTEM MOLPRO  ***
                                       Copyright, TTI GmbH Stuttgart, 2015
                                    Version 2015.1 linked Dec 29 2018 15:55:43


 **********************************************************************************************************************************
 LABEL *   Calculation for Ag atom, singlet and triplet                                  
  64 bit mpp version                                                                     DATE: 05-May-21          TIME: 13:51:47  
 **********************************************************************************************************************************

 SHA1:             19cd028119e0e09f93f0674bd8af7968d9b3eff6
 **********************************************************************************************************************************

Geometry recognized as XYZ


 Variable memory set to  512000000 words,  buffer space   230000 words

 SETTING BASIS          =    USERDEF

 DO I                   =         1.00000000   

 Running procedure=IDTEN


 Recomputing integrals since basis changed


 Using spherical harmonics



 PROGRAM * SEWARD (Integral evaluation for generally contracted gaussian basis sets)     Author: Roland Lindh, 1990

 Geometry written to block  1 of record 700

 Orientation using atomic masses  
 Molecule type: Atom
 Symmetry elements: X,Y,Z
 Rotational constants:       0.0000000      0.0000000      0.0000000 GHz  (calculated with average atomic masses)

 Point group  D2h 



 ATOMIC COORDINATES

 NR  ATOM    CHARGE       X              Y              Z

   1  PD     18.00    0.000000000    0.000000000    0.000000000

 NUCLEAR CHARGE:                   18
 NUMBER OF PRIMITIVE AOS:         429
 NUMBER OF SYMMETRY AOS:          313
 NUMBER OF CONTRACTIONS:          313   (  83Ag  +  42B3u +  42B2u +  31B1g +  42B1u +  31B2g +  31B3g +  11Au  )
 NUMBER OF CORE ORBITALS:           4   (   1Ag  +   1B3u +   1B2u +   0B1g +   1B1u +   0B2g +   0B3g +   0Au  )
 NUMBER OF VALENCE ORBITALS:        6   (   3Ag  +   0B3u +   0B2u +   1B1g +   0B1u +   1B2g +   1B3g +   0Au  )


 NUCLEAR REPULSION ENERGY    0.00000000

 EXTRA SYMMETRY OF AOS IN SYMMETRY 1:   1 1 1 1 1 1 1 1 1 1   1 1 1 1 1 1 1 1 1 1   1 1 1 1 1 1 1 1 1 2   3 2 3 2 3 2 3 2 3 2
                                        3 2 3 2 3 2 3 2 3 2   3 2 3 2 3 2 3 2 3 2   3 2 3 4 5 6 4 5 6 4   5 6 4 5 6 7 8 910 7
                                        8 910
 EXTRA SYMMETRY OF AOS IN SYMMETRY 2:   1 1 1 1 1 1 1 1 1 1   1 1 1 1 1 1 1 1 1 1   1 1 1 2 3 2 3 2 3 2   3 2 3 4 5 6 4 5 6 4
                                        5 6
 EXTRA SYMMETRY OF AOS IN SYMMETRY 3:   1 1 1 1 1 1 1 1 1 1   1 1 1 1 1 1 1 1 1 1   1 1 1 2 3 2 3 2 3 2   3 2 3 4 5 6 4 5 6 4
                                        5 6
 EXTRA SYMMETRY OF AOS IN SYMMETRY 4:   1 1 1 1 1 1 1 1 1 1   1 1 1 1 1 1 1 2 3 2   3 2 3 2 3 4 5 6 4 5   6
 EXTRA SYMMETRY OF AOS IN SYMMETRY 5:   1 1 1 1 1 1 1 1 1 1   1 1 1 1 1 1 1 1 1 1   1 1 1 2 3 2 3 2 3 2   3 2 3 4 5 6 4 5 6 4
                                        5 6
 EXTRA SYMMETRY OF AOS IN SYMMETRY 6:   1 1 1 1 1 1 1 1 1 1   1 1 1 1 1 1 1 2 3 2   3 2 3 2 3 4 5 6 4 5   6
 EXTRA SYMMETRY OF AOS IN SYMMETRY 7:   1 1 1 1 1 1 1 1 1 1   1 1 1 1 1 1 1 2 3 2   3 2 3 2 3 4 5 6 4 5   6
 EXTRA SYMMETRY OF AOS IN SYMMETRY 8:   1 1 1 1 1 2 3 2 3 2   3

 Eigenvalues of metric

         1 0.199E-05 0.951E-05 0.951E-05 0.294E-04 0.121E-03 0.307E-03 0.307E-03 0.364E-03
         2 0.984E-06 0.472E-03 0.163E-02 0.409E-02 0.952E-02 0.187E-01 0.302E-01 0.519E-01
         3 0.984E-06 0.472E-03 0.163E-02 0.409E-02 0.952E-02 0.187E-01 0.302E-01 0.519E-01
         4 0.951E-05 0.307E-03 0.302E-02 0.107E-01 0.287E-01 0.531E-01 0.105E+00 0.153E+00
         5 0.984E-06 0.472E-03 0.163E-02 0.409E-02 0.952E-02 0.187E-01 0.302E-01 0.519E-01
         6 0.951E-05 0.307E-03 0.302E-02 0.107E-01 0.287E-01 0.531E-01 0.105E+00 0.153E+00
         7 0.951E-05 0.307E-03 0.302E-02 0.107E-01 0.287E-01 0.531E-01 0.105E+00 0.153E+00
         8 0.127E+00 0.300E+00 0.300E+00 0.340E+00 0.792E+00 0.909E+00 0.909E+00 0.150E+01


 Contracted 2-electron integrals neglected if value below      1.0D-13
 AO integral compression algorithm  1   Integral accuracy      1.0D-13

     703.070 MB (compressed) written to integral file ( 38.6%)

     Node minimum: 13.894 MB, node maximum: 55.050 MB


 NUMBER OF SORTED TWO-ELECTRON INTEGRALS:    6728960.     BUFFER LENGTH:  32768
 NUMBER OF SEGMENTS:   1  SEGMENT LENGTH:    6728960      RECORD LENGTH: 524288

 Memory used in sort:       7.29 MW

 SORT1 READ   227623651. AND WROTE     3197070. INTEGRALS IN     10 RECORDS. CPU TIME:     6.34 SEC, REAL TIME:     6.49 SEC
 SORT2 READ    75008247. AND WROTE   155396568. INTEGRALS IN   2829 RECORDS. CPU TIME:     0.34 SEC, REAL TIME:     0.54 SEC

 Node minimum:     6630452.  Node maximum:     6850849. integrals

 OPERATOR DM      FOR CENTER  0  COORDINATES:    0.000000    0.000000    0.000000


 **********************************************************************************************************************************
 DATASETS  * FILE   NREC   LENGTH (MB)   RECORD NAMES
              1      19       20.62       500      610      700      900      950      970     1000      129      960     1100   
                                          VAR    BASINP    GEOM    SYMINP    ZMAT    AOBASIS   BASIS     P2S    ABASIS      S 
                                         1400     1410     1420     1200     1210     1080     1600     1650     1700   
                                           T        V       ECP      H0       H01     AOSYM     SMH    MOLCAS    OPER   

 PROGRAMS   *        TOTAL       INT
 CPU TIMES  *        30.10     29.13
 REAL TIME  *        32.31 SEC
 DISK USED  *         1.63 GB      
 GA USED    *         0.00 MB       (max)       0.00 MB       (current)
 **********************************************************************************************************************************


 PROGRAM * RHF-SCF (CLOSED SHELL)       Authors: W. Meyer, H.-J. Werner


 NUMBER OF ELECTRONS:       9+    9-    SPACE SYMMETRY=1    SPIN SYMMETRY: Singlet 
 CONVERGENCE THRESHOLDS:    1.00E-05 (Density)    1.00E-07 (Energy)
 MAX. NUMBER OF ITERATIONS:       60
 INTERPOLATION TYPE:            DIIS
 INTERPOLATION STEPS:              2 (START)      1 (STEP)
 LEVEL SHIFTS:                  0.00 (CLOSED)  0.00 (OPEN) 

 Number of closed-shell orbitals:    9 (   3   1   1   1   1   1   1   0 )


 
 Extra symmetries of mos in symmetry 1:   1   3   2
 Orbital guess generated from atomic densities. Full valence occupancy:    4   1   1   1   1   1   1   0


 Molecular orbital dump at record        4202.2

 ITERATION    DDIFF          GRAD             ENERGY        2-EL.EN.            DIPOLE MOMENTS         DIIS   ORB.
    1      0.000D+00      0.000D+00      -126.57039976    207.089482    0.00000    0.00000    0.00000    0    start
    2      0.000D+00      0.115D-01      -126.57327182    197.756668    0.00000    0.00000    0.00000    1    diag
    3      0.393D-02      0.128D-01      -126.60906679    202.095314    0.00000    0.00000    0.00000    2    diag
    4      0.160D-02      0.597D-03      -126.60913116    202.231273    0.00000    0.00000    0.00000    3    diag
    5      0.104D-03      0.667D-04      -126.60913218    202.248602    0.00000    0.00000    0.00000    4    diag
    6      0.321D-04      0.603D-05      -126.60913219    202.249184    0.00000    0.00000    0.00000    5    diag
    7      0.386D-05      0.316D-06      -126.60913219    202.249304    0.00000    0.00000    0.00000    0    orth

 Final occupancy:   3   1   1   1   1   1   1   0

 !RHF STATE 1.1 Energy               -126.609132191625
 Nuclear energy                         0.00000000
 One-electron energy                 -227.73378419
 Two-electron energy                  101.12465200
 Virial quotient                       -2.59451687
 !RHF STATE 1.1 Dipole moment           0.00000000     0.00000000     0.00000000
 Dipole moment /Debye                   0.00000000     0.00000000     0.00000000

 ELECTRON ORBITALS
 =================


   Orb  Occ    Energy  Couls-En    Coefficients

                                   1 1s      1 1s      1 1s      1 1s      1 1s      1 1s      1 1s      1 1s      1 1s      1 1s   
                                   1 1s      1 1s      1 1s      1 1s      1 1s      1 1s      1 1s      1 1s      1 1s      1 1s   
                                   1 1s      1 1s      1 1s      1 1s      1 1s      1 1s      1 1s      1 1s      1 1s      1 3d0  
                                   1 3d2+    1 3d0     1 3d2+    1 3d0     1 3d2+    1 3d0     1 3d2+    1 3d0     1 3d2+    1 3d0  
                                   1 3d2+    1 3d0     1 3d2+    1 3d0     1 3d2+    1 3d0     1 3d2+    1 3d0     1 3d2+    1 3d0  
                                   1 3d2+    1 3d0     1 3d2+    1 3d0     1 3d2+    1 3d0     1 3d2+    1 3d0     1 3d2+    1 3d0  
                                   1 3d2+    1 3d0     1 3d2+    1 5g0     1 5g4+    1 5g2+    1 5g0     1 5g4+    1 5g2+    1 5g0  
                                   1 5g4+    1 5g2+    1 5g0     1 5g4+    1 5g2+    1 7i6+    1 7i4+    1 7i2+    1 7i0     1 7i6+ 
                                   1 7i4+    1 7i2+    1 7i0  

   1.1   2    -3.8534  -20.1231  0.000000  0.000000 -0.000000  0.000000 -0.000000  0.000000 -0.000001  0.000004 -0.000006  0.000031
                                -0.000048  0.000211 -0.000344  0.001281 -0.002531  0.007566 -0.017977  0.015352  0.215999 -0.695900
                                -0.179685  0.912292  0.540385  0.035625 -0.015171  0.006193  0.087217 -0.090279 -0.001639  0.000000
                                 0.000000 -0.000000  0.000000  0.000000  0.000000 -0.000000 -0.000000  0.000000  0.000000 -0.000000
                                -0.000000  0.000000  0.000000 -0.000000 -0.000000  0.000000  0.000000  0.000000  0.000000  0.000000
                                 0.000000 -0.000000 -0.000000  0.000000  0.000000 -0.000000 -0.000000 -0.000000 -0.000000 -0.000000
                                -0.000000  0.000000 -0.000000  0.000000  0.000000 -0.000000  0.000000  0.000000 -0.000000  0.000000
                                 0.000000 -0.000000 -0.000000 -0.000000  0.000000  0.000000  0.000000  0.000000 -0.000000 -0.000000
                                -0.000000 -0.000000  0.000000

   2.1   2    -0.3265  -11.1221 -0.000000  0.000000 -0.000000  0.000000 -0.000000  0.000000 -0.000000  0.000000 -0.000000  0.000000
                                -0.000000  0.000000 -0.000000  0.000000 -0.000000  0.000000 -0.000000  0.000000 -0.000000  0.000000
                                 0.000000 -0.000000 -0.000000 -0.000000 -0.000000  0.000000 -0.000000  0.000000 -0.000000 -0.000000
                                -0.000000  0.000000  0.000000 -0.000014 -0.000015 -0.000010 -0.000011 -0.000253 -0.000275 -0.000159
                                -0.000173 -0.003681 -0.004011  0.020106  0.021908 -0.028088 -0.030606 -0.141494 -0.154178 -0.235392
                                -0.256494 -0.221943 -0.241839 -0.146734 -0.159888 -0.052191 -0.056870 -0.025489 -0.027774 -0.016024
                                -0.017460 -0.001872 -0.002039  0.000000  0.000000  0.000000 -0.000000 -0.000000 -0.000000  0.000000
                                 0.000000  0.000000 -0.000000 -0.000000 -0.000000  0.000000  0.000000 -0.000000  0.000000  0.000000
                                -0.000000  0.000000 -0.000000

   3.1   2    -0.3265  -11.1221  0.000000 -0.000000  0.000000 -0.000000  0.000000 -0.000000  0.000000 -0.000000  0.000000 -0.000000
                                 0.000000 -0.000000  0.000000  0.000000 -0.000000  0.000000 -0.000000  0.000000 -0.000000  0.000000
                                 0.000000 -0.000000 -0.000000  0.000000 -0.000000  0.000000 -0.000000  0.000000 -0.000000 -0.000000
                                 0.000000  0.000000 -0.000000 -0.000015  0.000014 -0.000011  0.000010 -0.000275  0.000253 -0.000173
                                 0.000159 -0.004011  0.003681  0.021908 -0.020106 -0.030606  0.028088 -0.154178  0.141494 -0.256494
                                 0.235392 -0.241839  0.221943 -0.159888  0.146734 -0.056870  0.052191 -0.027774  0.025489 -0.017460
                                 0.016024 -0.002039  0.001872  0.000000  0.000000  0.000000 -0.000000 -0.000000 -0.000000  0.000000
                                 0.000000  0.000000 -0.000000 -0.000000 -0.000000 -0.000000  0.000000 -0.000000 -0.000000  0.000000
                                -0.000000  0.000000  0.000000

   4.1   0     0.0092   -3.0638  0.000000 -0.000000  0.000000 -0.000000  0.000000 -0.000000  0.000000 -0.000001  0.000002 -0.000006
                                 0.000014 -0.000044  0.000092 -0.000276  0.000612 -0.001646  0.003981 -0.007009 -0.008340  0.012364
                                -0.175361  0.177068  0.039634 -0.145934  0.506703 -0.723386  0.166983 -0.324015  1.376845  0.000000
                                -0.000000 -0.000000  0.000000 -0.000000 -0.000000  0.000000  0.000000 -0.000000 -0.000000  0.000000
                                 0.000000 -0.000000 -0.000000  0.000000  0.000000 -0.000000 -0.000000 -0.000000 -0.000000 -0.000000
                                -0.000000  0.000000  0.000000 -0.000000 -0.000000  0.000000  0.000000  0.000000  0.000000  0.000000
                                 0.000000 -0.000000 -0.000001  0.000000  0.000000 -0.000000 -0.000000 -0.000000  0.000000  0.000000
                                 0.000000  0.000000  0.000000  0.000000  0.000000 -0.000000 -0.000000 -0.000000 -0.000000  0.000000
                                 0.000000  0.000000  0.000000

   5.1   0     0.0604   -3.2884  0.000000 -0.000000  0.000000 -0.000000  0.000000 -0.000000  0.000000 -0.000001  0.000003 -0.000007
                                 0.000025 -0.000051  0.000161 -0.000335  0.000919 -0.001994  0.004778 -0.015812  0.084189 -0.365580
                                -0.759753  1.328260  0.700037 -0.634679  1.477380 -3.548391  0.699804 -1.335490  2.301374  0.000000
                                 0.000000 -0.000000 -0.000000  0.000000  0.000000 -0.000000 -0.000000  0.000000  0.000000 -0.000000
                                -0.000000  0.000000  0.000000 -0.000000 -0.000000  0.000000  0.000000  0.000001  0.000000  0.000000
                                 0.000000 -0.000000 -0.000000 -0.000000  0.000000  0.000000 -0.000000 -0.000001 -0.000000 -0.000001
                                -0.000000 -0.000000 -0.000000 -0.000000  0.000000  0.000000  0.000000  0.000000  0.000000 -0.000000
                                -0.000000 -0.000000  0.000000  0.000000  0.000000 -0.000000  0.000000  0.000000 -0.000000  0.000000
                                -0.000000 -0.000000  0.000000

                                   1 2px     1 2px     1 2px     1 2px     1 2px     1 2px     1 2px     1 2px     1 2px     1 2px  
                                   1 2px     1 2px     1 2px     1 2px     1 2px     1 2px     1 2px     1 2px     1 2px     1 2px  
                                   1 2px     1 2px     1 2px     1 4f1+    1 4f3+    1 4f1+    1 4f3+    1 4f1+    1 4f3+    1 4f1+ 
                                   1 4f3+    1 4f1+    1 4f3+    1 6h1+    1 6h3+    1 6h5+    1 6h1+    1 6h3+    1 6h5+    1 6h1+ 
                                   1 6h3+    1 6h5+ 

   1.2   2    -2.4187  -16.9586  0.000000 -0.000000  0.000000 -0.000000  0.000001 -0.000004  0.000023 -0.000052  0.000228 -0.000458
                                 0.001836 -0.006897  0.045524 -0.123707 -0.296885  0.345870  0.292098  0.043209 -0.004872  0.002551
                                 0.159404  0.534028 -0.000781 -0.000000  0.000000 -0.000000  0.000000 -0.000000  0.000000 -0.000000
                                 0.000000  0.000000 -0.000000 -0.000000  0.000000 -0.000000  0.000000 -0.000000  0.000000 -0.000000
                                 0.000000 -0.000000

   2.2   0     0.0273   -1.8326  0.000000 -0.000000  0.000000 -0.000000  0.000001 -0.000002  0.000009 -0.000028  0.000081 -0.000220
                                 0.000541 -0.001300  0.002765 -0.009724  0.307531  0.034118  0.033784 -0.073779  0.220397 -0.528518
                                -0.320538 -0.050684  1.308696  0.000000 -0.000000  0.000000 -0.000000  0.000000 -0.000000  0.000000
                                -0.000000  0.000000  0.000000  0.000000 -0.000000  0.000000 -0.000000  0.000000 -0.000000  0.000000
                                 0.000000  0.000000

   3.2   0     0.0980   -2.8732 -0.000000  0.000000 -0.000000  0.000000 -0.000002  0.000007 -0.000027  0.000086 -0.000256  0.000672
                                -0.001763  0.004609 -0.014660  0.046995 -0.805109 -0.154379 -0.147365  0.254658 -0.576856  2.031538
                                 0.861195  0.048291 -1.163211  0.000000 -0.000000  0.000000 -0.000000  0.000000 -0.000000  0.000000
                                -0.000000 -0.000000  0.000000 -0.000000 -0.000000 -0.000000  0.000000  0.000000  0.000000 -0.000000
                                -0.000000 -0.000000

                                   1 2py     1 2py     1 2py     1 2py     1 2py     1 2py     1 2py     1 2py     1 2py     1 2py  
                                   1 2py     1 2py     1 2py     1 2py     1 2py     1 2py     1 2py     1 2py     1 2py     1 2py  
                                   1 2py     1 2py     1 2py     1 4f1-    1 4f3-    1 4f1-    1 4f3-    1 4f1-    1 4f3-    1 4f1- 
                                   1 4f3-    1 4f1-    1 4f3-    1 6h1-    1 6h3-    1 6h5-    1 6h1-    1 6h3-    1 6h5-    1 6h1- 
                                   1 6h3-    1 6h5- 

   1.3   2    -2.4187  -16.9586  0.000000 -0.000000  0.000000 -0.000000  0.000001 -0.000004  0.000023 -0.000052  0.000228 -0.000458
                                 0.001836 -0.006897  0.045524 -0.123707 -0.296885  0.345870  0.292098  0.043209 -0.004872  0.002551
                                 0.159404  0.534028 -0.000781  0.000000  0.000000  0.000000 -0.000000  0.000000  0.000000 -0.000000
                                 0.000000 -0.000000 -0.000000 -0.000000  0.000000 -0.000000  0.000000 -0.000000  0.000000  0.000000
                                 0.000000 -0.000000

   2.3   0     0.0273   -1.8326  0.000000 -0.000000  0.000000 -0.000000  0.000001 -0.000002  0.000009 -0.000028  0.000081 -0.000220
                                 0.000541 -0.001300  0.002765 -0.009724  0.307531  0.034118  0.033784 -0.073779  0.220397 -0.528518
                                -0.320538 -0.050684  1.308696  0.000000 -0.000000  0.000000 -0.000000  0.000000 -0.000000  0.000000
                                -0.000000  0.000000 -0.000000  0.000000 -0.000000  0.000000  0.000000  0.000000 -0.000000  0.000000
                                 0.000000  0.000000

   3.3   0     0.0980   -2.8732 -0.000000  0.000000 -0.000000  0.000000 -0.000002  0.000007 -0.000027  0.000086 -0.000256  0.000672
                                -0.001763  0.004609 -0.014660  0.046995 -0.805109 -0.154379 -0.147365  0.254658 -0.576856  2.031538
                                 0.861195  0.048291 -1.163211  0.000000  0.000000  0.000000 -0.000000  0.000000 -0.000000  0.000000
                                -0.000000 -0.000000  0.000000  0.000000 -0.000000 -0.000000 -0.000000  0.000000  0.000000  0.000000
                                -0.000000 -0.000000

                                   1 3d2-    1 3d2-    1 3d2-    1 3d2-    1 3d2-    1 3d2-    1 3d2-    1 3d2-    1 3d2-    1 3d2- 
                                   1 3d2-    1 3d2-    1 3d2-    1 3d2-    1 3d2-    1 3d2-    1 3d2-    1 5g2-    1 5g4-    1 5g2- 
                                   1 5g4-    1 5g2-    1 5g4-    1 5g2-    1 5g4-    1 7i2-    1 7i6-    1 7i4-    1 7i2-    1 7i6- 
                                   1 7i4- 

   1.4   2    -0.3265  -11.1221  0.000000 -0.000000  0.000021  0.000015  0.000374  0.000235  0.005444 -0.029736  0.041542  0.209264
                                 0.348136  0.328245  0.217013  0.077189  0.037697  0.023699  0.002768 -0.000000  0.000000  0.000000
                                 0.000000  0.000000  0.000000 -0.000000  0.000000 -0.000000 -0.000000  0.000000  0.000000  0.000000
                                -0.000000

   2.4   0     0.1009   -2.2245  0.000001 -0.000006  0.000031 -0.000133  0.000404 -0.001315  0.003245 -0.009227  0.057196  0.536450
                                 0.448820 -0.190642  0.186092 -0.477001 -0.400562 -0.606938  1.256270  0.000000 -0.000000 -0.000000
                                 0.000000  0.000000 -0.000000 -0.000000  0.000000  0.000000 -0.000000 -0.000000 -0.000000  0.000000
                                 0.000000

   3.4   0     0.3434   -3.3263 -0.000003  0.000020 -0.000110  0.000412 -0.001494  0.004044 -0.013392  0.046315 -0.207558 -1.851863
                                -1.671471  0.454416 -0.826253  1.896259  1.268242  1.963442 -0.890488  0.000000 -0.000000 -0.000000
                                 0.000000  0.000000 -0.000000 -0.000000  0.000000 -0.000000 -0.000000 -0.000000  0.000000  0.000000
                                 0.000000

                                   1 2pz     1 2pz     1 2pz     1 2pz     1 2pz     1 2pz     1 2pz     1 2pz     1 2pz     1 2pz  
                                   1 2pz     1 2pz     1 2pz     1 2pz     1 2pz     1 2pz     1 2pz     1 2pz     1 2pz     1 2pz  
                                   1 2pz     1 2pz     1 2pz     1 4f0     1 4f2+    1 4f0     1 4f2+    1 4f0     1 4f2+    1 4f0  
                                   1 4f2+    1 4f0     1 4f2+    1 6h2+    1 6h4+    1 6h0     1 6h2+    1 6h4+    1 6h0     1 6h2+ 
                                   1 6h4+    1 6h0  

   1.5   2    -2.4187  -16.9586  0.000000 -0.000000  0.000000 -0.000000  0.000001 -0.000004  0.000023 -0.000052  0.000228 -0.000458
                                 0.001836 -0.006897  0.045524 -0.123707 -0.296885  0.345870  0.292098  0.043209 -0.004872  0.002551
                                 0.159404  0.534028 -0.000781 -0.000000  0.000000  0.000000 -0.000000  0.000000  0.000000 -0.000000
                                 0.000000 -0.000000 -0.000000  0.000000 -0.000000 -0.000000 -0.000000  0.000000  0.000000  0.000000
                                -0.000000 -0.000000

   2.5   0     0.0273   -1.8326  0.000000 -0.000000  0.000000 -0.000000  0.000001 -0.000002  0.000009 -0.000028  0.000081 -0.000220
                                 0.000541 -0.001300  0.002765 -0.009724  0.307531  0.034118  0.033784 -0.073779  0.220397 -0.528518
                                -0.320538 -0.050684  1.308696  0.000000 -0.000000  0.000000 -0.000000  0.000000 -0.000000  0.000000
                                -0.000000  0.000000  0.000000 -0.000000  0.000000 -0.000000 -0.000000 -0.000000  0.000000  0.000000
                                 0.000000 -0.000000

   3.5   0     0.0980   -2.8732 -0.000000  0.000000 -0.000000  0.000000 -0.000002  0.000007 -0.000027  0.000086 -0.000256  0.000672
                                -0.001763  0.004609 -0.014660  0.046995 -0.805109 -0.154379 -0.147365  0.254658 -0.576856  2.031538
                                 0.861195  0.048291 -1.163211 -0.000000  0.000000  0.000000 -0.000000  0.000000 -0.000000  0.000000
                                -0.000000 -0.000000  0.000000 -0.000000  0.000000  0.000000  0.000000 -0.000000 -0.000000 -0.000000
                                 0.000000  0.000000

                                   1 3d1+    1 3d1+    1 3d1+    1 3d1+    1 3d1+    1 3d1+    1 3d1+    1 3d1+    1 3d1+    1 3d1+ 
                                   1 3d1+    1 3d1+    1 3d1+    1 3d1+    1 3d1+    1 3d1+    1 3d1+    1 5g1+    1 5g3+    1 5g1+ 
                                   1 5g3+    1 5g1+    1 5g3+    1 5g1+    1 5g3+    1 7i5+    1 7i3+    1 7i1+    1 7i5+    1 7i3+ 
                                   1 7i1+ 

   1.6   2    -0.3265  -11.1221  0.000000 -0.000000  0.000021  0.000015  0.000374  0.000235  0.005444 -0.029736  0.041542  0.209264
                                 0.348136  0.328245  0.217013  0.077189  0.037697  0.023699  0.002768 -0.000000  0.000000  0.000000
                                 0.000000 -0.000000  0.000000 -0.000000  0.000000 -0.000000  0.000000 -0.000000  0.000000 -0.000000
                                 0.000000

   2.6   0     0.1009   -2.2245  0.000001 -0.000006  0.000031 -0.000133  0.000404 -0.001315  0.003245 -0.009227  0.057196  0.536450
                                 0.448820 -0.190642  0.186092 -0.477001 -0.400562 -0.606938  1.256270  0.000000 -0.000000 -0.000000
                                 0.000000  0.000000 -0.000000 -0.000000  0.000000 -0.000000 -0.000000  0.000000  0.000000  0.000000
                                 0.000000

   3.6   0     0.3434   -3.3263 -0.000003  0.000020 -0.000110  0.000412 -0.001494  0.004044 -0.013392  0.046315 -0.207558 -1.851863
                                -1.671471  0.454416 -0.826253  1.896259  1.268242  1.963442 -0.890488  0.000000 -0.000000 -0.000000
                                 0.000000  0.000000 -0.000000 -0.000000  0.000000 -0.000000 -0.000000  0.000000  0.000000  0.000000
                                 0.000000

                                   1 3d1-    1 3d1-    1 3d1-    1 3d1-    1 3d1-    1 3d1-    1 3d1-    1 3d1-    1 3d1-    1 3d1- 
                                   1 3d1-    1 3d1-    1 3d1-    1 3d1-    1 3d1-    1 3d1-    1 3d1-    1 5g1-    1 5g3-    1 5g1- 
                                   1 5g3-    1 5g1-    1 5g3-    1 5g1-    1 5g3-    1 7i5-    1 7i3-    1 7i1-    1 7i5-    1 7i3- 
                                   1 7i1- 

   1.7   2    -0.3265  -11.1221  0.000000 -0.000000  0.000021  0.000015  0.000374  0.000235  0.005444 -0.029736  0.041542  0.209264
                                 0.348136  0.328245  0.217013  0.077189  0.037697  0.023699  0.002768 -0.000000  0.000000  0.000000
                                 0.000000  0.000000  0.000000 -0.000000  0.000000 -0.000000  0.000000 -0.000000  0.000000 -0.000000
                                 0.000000

   2.7   0     0.1009   -2.2245  0.000001 -0.000006  0.000031 -0.000133  0.000404 -0.001315  0.003245 -0.009227  0.057196  0.536450
                                 0.448820 -0.190642  0.186092 -0.477001 -0.400562 -0.606938  1.256270  0.000000 -0.000000  0.000000
                                 0.000000  0.000000 -0.000000  0.000000  0.000000 -0.000000 -0.000000 -0.000000  0.000000  0.000000
                                 0.000000

   3.7   0     0.3434   -3.3263 -0.000003  0.000020 -0.000110  0.000412 -0.001494  0.004044 -0.013392  0.046315 -0.207558 -1.851863
                                -1.671471  0.454416 -0.826253  1.896259  1.268242  1.963442 -0.890488  0.000000 -0.000000 -0.000000
                                 0.000000  0.000000 -0.000000 -0.000000  0.000000 -0.000000 -0.000000 -0.000000  0.000000  0.000000
                                 0.000000

                                   1 4f2-    1 4f2-    1 4f2-    1 4f2-    1 4f2-    1 6h4-    1 6h2-    1 6h4-    1 6h2-    1 6h4- 
                                   1 6h2- 

   1.8   0     0.5013   -3.3354  0.007275 -0.009256  0.084035 -0.214783  1.106949  0.000000 -0.000000 -0.000000  0.000000  0.000000
                                -0.000000

   2.8   0     1.3601   -4.7348  0.019427  0.117942 -0.032598  1.232394 -0.621185  0.000000 -0.000000 -0.000000  0.000000  0.000000
                                -0.000000

 HOMO      1.7    -0.326529 =      -8.8853eV
 LUMO      4.1     0.009212 =       0.2507eV
 LUMO-HOMO         0.335740 =       9.1360eV


 **********************************************************************************************************************************
 DATASETS  * FILE   NREC   LENGTH (MB)   RECORD NAMES
              1      19       20.65       500      610      700      900      950      970     1000      129      960     1100   
                                          VAR    BASINP    GEOM    SYMINP    ZMAT    AOBASIS   BASIS     P2S    ABASIS      S 
                                         1400     1410     1420     1200     1210     1080     1600     1650     1700   
                                           T        V       ECP      H0       H01     AOSYM     SMH    MOLCAS    OPER   

              2       5        5.70       200      700     1000      520     4202   
                                        OPTIONS   GEOM     BASIS   MCVARS     RHF  

 PROGRAMS   *        TOTAL       RHF       INT
 CPU TIMES  *        30.67      0.57     29.13
 REAL TIME  *        33.20 SEC
 DISK USED  *         2.26 GB      
 SF USED    *         0.06 MB      
 GA USED    *         0.00 MB       (max)       0.00 MB       (current)
 **********************************************************************************************************************************
 SETTING SCF(1)         =      -126.60913219  AU                              
 SETTING _CC_NORM_MAX   =         2.00000000                                  


 PROGRAM * CCSD (Restricted open-shell coupled cluster)     Authors: C. Hampel, H.-J. Werner, 1991, M. Deegan, P.J. Knowles, 1992


 Convergence thresholds:  THRVAR = 1.00D-08  THRDEN = 1.00D-06

 CCSD(T)     terms to be evaluated (factor= 1.000)


 Number of closed-shell orbitals:   9 (   3   1   1   1   1   1   1   0 )
 Number of external orbitals:     304 (  80  41  41  30  41  30  30  11 )

 Memory could be reduced to 61.01 Mwords without degradation in triples

 Number of N-1 electron functions:              18
 Number of N-2 electron functions:             153
 Number of singly external CSFs:               906
 Number of doubly external CSFs:           1373280
 Total number of CSFs:                     1374186

 Molecular orbitals read from record     4202.2  Type=RHF/CANONICAL (state 1.1)

 Integral transformation finished. Total CPU:   1.33 sec, npass=  1  Memory used:  10.89 MW

 Starting RMP2 calculation

 Wavefunction is spin-projected

 ITER.      SQ.NORM     CORR.ENERGY   TOTAL ENERGY   ENERGY CHANGE        DEN1      VAR(S)    VAR(P)  DIIS     TIME
   1      1.15003932    -0.83935346  -127.44848565    -0.83935346    -0.00141891  0.98D-12  0.54D-03  1  1     1.79
   2      1.15129799    -0.84084906  -127.44998125    -0.00149560    -0.00000383  0.43D-13  0.26D-05  2  2     2.20
   3      1.15137124    -0.84089224  -127.45002443    -0.00004318    -0.00000001  0.12D-14  0.11D-07  3  3     2.63
   4      1.15137324    -0.84089260  -127.45002479    -0.00000036    -0.00000000  0.28D-16  0.64D-10  4  4     3.12

 Norm of t1 vector:      0.00000561      S-energy:    -0.00000000      T1 diagnostic:  0.00000094
 Norm of t2 vector:      0.38906714      P-energy:    -0.84089260
                                         Alpha-Beta:  -0.58890455
                                         Alpha-Alpha: -0.12599403
                                         Beta-Beta:   -0.12599403

 Spin contamination <S**2-Sz**2-Sz>     0.00000000
  Reference energy                   -126.609132191625
  RHF-RMP2 correlation energy          -0.840892600480
 !RHF-RMP2 energy                    -127.450024792105
 (NB above energy spin projected)

 Starting RCCSD calculation

 ITER.      SQ.NORM     CORR.ENERGY   TOTAL ENERGY   ENERGY CHANGE        DEN1      VAR(S)    VAR(P)  DIIS     TIME
   1      1.11692647    -0.77579513  -127.38492733    -0.77579513    -0.01789662  0.20D-02  0.36D-02  1  1     4.43
   2      1.12480989    -0.79121769  -127.40034989    -0.01542256    -0.00086913  0.69D-04  0.31D-03  2  2     5.55
   3      1.12528760    -0.79106800  -127.40020019     0.00014969    -0.00008192  0.52D-04  0.17D-04  3  3     6.62
   4      1.12584313    -0.79129225  -127.40042444    -0.00022425    -0.00000805  0.28D-05  0.30D-05  4  4     8.03
   5      1.12617089    -0.79138567  -127.40051786    -0.00009342    -0.00000074  0.56D-06  0.24D-06  5  5     9.24
   6      1.12624628    -0.79139351  -127.40052571    -0.00000784    -0.00000009  0.31D-07  0.36D-07  6  6    10.45
   7      1.12626786    -0.79139361  -127.40052581    -0.00000010    -0.00000002  0.19D-07  0.24D-08  6  1    11.68
   8      1.12627268    -0.79139482  -127.40052701    -0.00000121    -0.00000000  0.18D-08  0.18D-09  6  2    13.01
   9      1.12627352    -0.79139416  -127.40052635     0.00000066    -0.00000000  0.26D-09  0.68D-10  6  3    14.22

 Norm of t1 vector:      0.04422116      S-energy:    -0.00000007      T1 diagnostic:  0.00737019
                                                                       D1 diagnostic:  0.01367128
 Norm of t2 vector:      0.35258759      P-energy:    -0.79139409
                                         Alpha-Beta:  -0.57422115
                                         Alpha-Alpha: -0.10858647
                                         Beta-Beta:   -0.10858647

 Spin contamination <S**2-Sz**2-Sz>     0.00000000

 Memory could be reduced to 62.09 Mwords without degradation in triples
 

  Correlated core orbitals:             1.1       1.2       1.3       1.5
  Orbital energies:                    -3.8534   -2.4187   -2.4187   -2.4187
 
  RCCSD core-core energy               -0.123054329870
  RCCSD core-valence energy            -0.293569567778
  RCCSD valence correlation energy     -0.374770259502
 

 RESULTS
 =======

  Reference energy                   -126.609132191625
  RCCSD singles energy                 -0.000000066856
  RCCSD pair energy                    -0.791394090294
  RCCSD correlation energy             -0.791394157150
  Triples (T) contribution             -0.033709117739
  Total correlation energy             -0.825103274889
 
  RHF-RCCSD energy                   -127.400526348775
  RHF-RCCSD[T] energy                -127.435075922718
  RHF-RCCSD-T energy                 -127.434146680088
 !RHF-RCCSD(T) energy                -127.434235466514

 Program statistics:

 Available memory in ccsd:               511999162
 Min. memory needed in ccsd:               4090972
 Max. memory used in ccsd:                 5761543
 Max. memory used in cckext:               4393063 ( 9 integral passes)
 Max. memory used in cckint:              10891406 ( 1 integral passes)



 **********************************************************************************************************************************
 DATASETS  * FILE   NREC   LENGTH (MB)   RECORD NAMES
              1      19       20.65       500      610      700      900      950      970     1000      129      960     1100   
                                          VAR    BASINP    GEOM    SYMINP    ZMAT    AOBASIS   BASIS     P2S    ABASIS      S 
                                         1400     1410     1420     1200     1210     1080     1600     1650     1700   
                                           T        V       ECP      H0       H01     AOSYM     SMH    MOLCAS    OPER   

              2       5        5.70       200      700     1000      520     4202   
                                        OPTIONS   GEOM     BASIS   MCVARS     RHF  

 PROGRAMS   *        TOTAL  RCCSD(T)       RHF       INT
 CPU TIMES  *        60.03     29.35      0.57     29.13
 REAL TIME  *        75.45 SEC
 DISK USED  *         6.19 GB      
 SF USED    *       917.24 MB      
 GA USED    *         0.00 MB       (max)       0.00 MB       (current)
 **********************************************************************************************************************************
 SETTING CCSD(1)        =      -127.43423547  AU                              

 DO I                   =         2.00000000   

 Running procedure=EAS1DTEN


 PROGRAM * RHF-SCF (OPEN SHELL)       Authors: W. Meyer, H.-J. Werner


 NUMBER OF ELECTRONS:      10+    9-    SPACE SYMMETRY=1    SPIN SYMMETRY: Doublet 
 CONVERGENCE THRESHOLDS:    1.00E-05 (Density)    1.00E-07 (Energy)
 MAX. NUMBER OF ITERATIONS:       60
 INTERPOLATION TYPE:            DIIS
 INTERPOLATION STEPS:              2 (START)      1 (STEP)
 LEVEL SHIFTS:                 -0.60 (CLOSED) -0.30 (OPEN) 

 Number of closed-shell orbitals:    9 (   3   1   1   1   1   1   1   0 )
 Number of open-shell orbitals:      1 (   1   0   0   0   0   0   0   0 )


 
 Extra symmetries of mos in symmetry 1:   1   3   2   1
 Orbital guess generated from atomic densities. Full valence occupancy:    4   1   1   1   1   1   1   0


 Molecular orbital dump at record        4202.2

 ITERATION    DDIFF          GRAD             ENERGY        2-EL.EN.            DIPOLE MOMENTS         DIIS   ORB.
    1      0.000D+00      0.000D+00      -126.50321025    218.207717    0.00000    0.00000    0.00000    0    start
    2      0.000D+00      0.127D-01      -126.57024478    209.547278    0.00000    0.00000    0.00000    1    diag,B
    3      0.434D-02      0.773D-02      -126.58407945    210.921949    0.00000    0.00000    0.00000    2    diag,B
    4      0.206D-02      0.159D-02      -126.58971611    210.304163    0.00000    0.00000    0.00000    3    diag,B
    5      0.177D-02      0.672D-03      -126.59324307    209.835309    0.00000    0.00000    0.00000    4    diag,B
    6      0.184D-02      0.423D-03      -126.59635058    209.346408    0.00000    0.00000    0.00000    5    diag,B
    7      0.320D-02      0.307D-03      -126.59881385    208.891946    0.00000    0.00000    0.00000    6    fixocc
    8      0.580D-02      0.198D-03      -126.60011100    208.429003    0.00000    0.00000    0.00000    7    diag,B
    9      0.843D-02      0.115D-03      -126.60044461    208.142314    0.00000    0.00000    0.00000    8    diag,B
   10      0.863D-02      0.323D-04      -126.60045533    208.089471    0.00000    0.00000    0.00000    9    orth
   11      0.175D-02      0.771D-05      -126.60045556    208.086700    0.00000    0.00000    0.00000    9    diag,B
   12      0.147D-03      0.376D-05      -126.60045563    208.088308    0.00000    0.00000    0.00000    9    diag,B
   13      0.990D-04      0.174D-05      -126.60045565    208.090427    0.00000    0.00000    0.00000    9    diag,B
   14      0.976D-04      0.121D-06      -126.60045565    208.090430    0.00000    0.00000    0.00000    9    diag,B
   15      0.400D-05      0.181D-07      -126.60045565    208.090436    0.00000    0.00000    0.00000    0    orth

 Final alpha occupancy:   4   1   1   1   1   1   1   0
 Final beta  occupancy:   3   1   1   1   1   1   1   0

 !RHF STATE 1.1 Energy               -126.600455652204
 Nuclear energy                         0.00000000
 One-electron energy                 -230.64567351
 Two-electron energy                  104.04521785
 Virial quotient                       -2.59691242
 !RHF STATE 1.1 Dipole moment           0.00000000     0.00000000     0.00000000
 Dipole moment /Debye                   0.00000000     0.00000000     0.00000000

 ELECTRON ORBITALS
 =================


   Orb  Occ    Energy  Couls-En    Coefficients

                                   1 1s      1 1s      1 1s      1 1s      1 1s      1 1s      1 1s      1 1s      1 1s      1 1s   
                                   1 1s      1 1s      1 1s      1 1s      1 1s      1 1s      1 1s      1 1s      1 1s      1 1s   
                                   1 1s      1 1s      1 1s      1 1s      1 1s      1 1s      1 1s      1 1s      1 1s      1 3d0  
                                   1 3d2+    1 3d0     1 3d2+    1 3d0     1 3d2+    1 3d0     1 3d2+    1 3d0     1 3d2+    1 3d0  
                                   1 3d2+    1 3d0     1 3d2+    1 3d0     1 3d2+    1 3d0     1 3d2+    1 3d0     1 3d2+    1 3d0  
                                   1 3d2+    1 3d0     1 3d2+    1 3d0     1 3d2+    1 3d0     1 3d2+    1 3d0     1 3d2+    1 3d0  
                                   1 3d2+    1 3d0     1 3d2+    1 5g0     1 5g4+    1 5g2+    1 5g0     1 5g4+    1 5g2+    1 5g0  
                                   1 5g4+    1 5g2+    1 5g0     1 5g4+    1 5g2+    1 7i6+    1 7i4+    1 7i2+    1 7i0     1 7i6+ 
                                   1 7i4+    1 7i2+    1 7i0  

   1.1   2    -3.6929  -19.9644  0.000000  0.000000 -0.000000  0.000000 -0.000000  0.000000 -0.000001  0.000004 -0.000006  0.000031
                                -0.000048  0.000211 -0.000344  0.001283 -0.002535  0.007578 -0.018006  0.015410  0.216005 -0.695808
                                -0.178195  0.910894  0.538261  0.035370 -0.014987  0.006147  0.085756 -0.086933 -0.001592 -0.000000
                                -0.000000  0.000000  0.000000 -0.000000 -0.000000  0.000000  0.000000  0.000000  0.000000 -0.000000
                                -0.000000  0.000000  0.000000  0.000000 -0.000000  0.000000  0.000000  0.000000  0.000000 -0.000000
                                 0.000000 -0.000000  0.000000 -0.000000 -0.000000  0.000000 -0.000000 -0.000000 -0.000000 -0.000000
                                -0.000000 -0.000000  0.000000  0.000000 -0.000000 -0.000000 -0.000000  0.000000  0.000000  0.000000
                                -0.000000 -0.000000  0.000000  0.000000 -0.000000  0.000000  0.000000  0.000000  0.000000  0.000000
                                -0.000000 -0.000000 -0.000000

   2.1   2    -0.1636  -10.9328  0.000000 -0.000000 -0.000000  0.000000 -0.000000  0.000000 -0.000000  0.000000 -0.000000  0.000000
                                -0.000000  0.000000 -0.000000  0.000000 -0.000000  0.000000 -0.000000 -0.000000  0.000000 -0.000000
                                -0.000000  0.000000  0.000000 -0.000000 -0.000000 -0.000000  0.000000 -0.000000  0.000000  0.000000
                                 0.000000 -0.000000 -0.000000  0.000007  0.000020  0.000005  0.000014  0.000122  0.000352  0.000077
                                 0.000222  0.001782  0.005131 -0.009736 -0.028034  0.013598  0.039154  0.068500  0.197246  0.113996
                                 0.328248  0.107203  0.308689  0.070594  0.203274  0.027412  0.078932  0.012369  0.035616  0.007801
                                 0.022462  0.003142  0.009047  0.000000 -0.000000 -0.000000 -0.000000  0.000000  0.000000  0.000000
                                 0.000000 -0.000000  0.000000  0.000000  0.000000  0.000000  0.000000  0.000000  0.000000 -0.000000
                                -0.000000 -0.000000 -0.000000

   3.1   2    -0.1636  -10.9328 -0.000000  0.000000 -0.000000  0.000000  0.000000 -0.000000  0.000000 -0.000000  0.000000 -0.000000
                                 0.000000 -0.000000  0.000000 -0.000000  0.000000 -0.000000  0.000000 -0.000000  0.000000 -0.000000
                                -0.000000  0.000000  0.000000 -0.000000  0.000001 -0.000001  0.000000 -0.000000  0.000000 -0.000000
                                 0.000000  0.000000 -0.000000 -0.000020  0.000007 -0.000014  0.000005 -0.000352  0.000122 -0.000222
                                 0.000077 -0.005131  0.001782  0.028034 -0.009736 -0.039154  0.013598 -0.197245  0.068500 -0.328248
                                 0.113996 -0.308689  0.107203 -0.203274  0.070594 -0.078932  0.027412 -0.035616  0.012369 -0.022462
                                 0.007801 -0.009047  0.003142 -0.000000 -0.000000  0.000000 -0.000000 -0.000000 -0.000000  0.000000
                                 0.000000  0.000000 -0.000000  0.000000 -0.000000 -0.000000 -0.000000 -0.000000 -0.000000  0.000000
                                 0.000000  0.000000  0.000000

   4.1   +     0.0081   -3.1557  0.000000 -0.000000  0.000000 -0.000000  0.000000 -0.000000  0.000000 -0.000001  0.000002 -0.000006
                                 0.000013 -0.000044  0.000091 -0.000276  0.000607 -0.001644  0.003977 -0.006831 -0.010523  0.021234
                                -0.162453  0.151003  0.024447 -0.132774  0.492915 -0.656660  0.155202 -0.302195  1.324924 -0.000000
                                 0.000000  0.000000 -0.000000 -0.000000  0.000000  0.000000 -0.000000 -0.000000  0.000000  0.000000
                                -0.000000 -0.000000  0.000000  0.000000 -0.000000  0.000000  0.000000  0.000000  0.000000  0.000000
                                 0.000000 -0.000000 -0.000000  0.000000  0.000000  0.000000  0.000000 -0.000000 -0.000000 -0.000000
                                -0.000000 -0.000000  0.000000 -0.000000 -0.000000 -0.000000  0.000000  0.000000  0.000000 -0.000000
                                -0.000000 -0.000000  0.000000  0.000000  0.000000  0.000000 -0.000000  0.000000 -0.000000 -0.000000
                                 0.000000 -0.000000  0.000000

   5.1   0     0.1558   -2.9201  0.000000 -0.000000  0.000000 -0.000000  0.000000 -0.000000  0.000001 -0.000001  0.000005 -0.000012
                                 0.000037 -0.000085  0.000244 -0.000549  0.001436 -0.003268  0.007848 -0.022962  0.099973 -0.445383
                                -1.021656  1.718648  0.874418 -0.842073  1.945652 -3.959616  0.944419 -1.794456  2.469435 -0.000000
                                 0.000000  0.000000 -0.000000 -0.000000  0.000000  0.000000 -0.000000  0.000000  0.000000  0.000000
                                -0.000000  0.000000 -0.000000 -0.000000  0.000000  0.000000  0.000000  0.000000  0.000000  0.000000
                                 0.000000  0.000000 -0.000000  0.000000 -0.000000  0.000000 -0.000000 -0.000000 -0.000000 -0.000000
                                -0.000000  0.000000 -0.000000 -0.000000 -0.000000 -0.000000  0.000000  0.000000  0.000000 -0.000000
                                -0.000000 -0.000000  0.000000  0.000000  0.000000  0.000000 -0.000000  0.000000 -0.000000 -0.000000
                                 0.000000 -0.000000  0.000000

   6.1   0     0.2066   -2.0791 -0.000000  0.000000 -0.000000  0.000000 -0.000000  0.000000 -0.000000  0.000000 -0.000000  0.000000
                                -0.000000  0.000000 -0.000000  0.000000 -0.000000  0.000000 -0.000000  0.000000 -0.000000  0.000000
                                 0.000000 -0.000000 -0.000000  0.000000 -0.000000  0.000000 -0.000000  0.000000 -0.000000  0.000001
                                -0.000000 -0.000007  0.000004  0.000033 -0.000020 -0.000141  0.000083  0.000438 -0.000257 -0.001401
                                 0.000822  0.003566 -0.002091 -0.010400  0.006099  0.061853 -0.036274  0.575983 -0.337788  0.483888
                                -0.283778 -0.196229  0.115079  0.199494 -0.116994 -0.483582  0.283599 -0.426718  0.250251 -0.646066
                                 0.378888  1.115455 -0.654164 -0.000000  0.000000 -0.000000  0.000000  0.000000  0.000000 -0.000000
                                -0.000000 -0.000000  0.000000  0.000000 -0.000000 -0.000000 -0.000000 -0.000000 -0.000000  0.000000
                                 0.000000  0.000000  0.000000

                                   1 2px     1 2px     1 2px     1 2px     1 2px     1 2px     1 2px     1 2px     1 2px     1 2px  
                                   1 2px     1 2px     1 2px     1 2px     1 2px     1 2px     1 2px     1 2px     1 2px     1 2px  
                                   1 2px     1 2px     1 2px     1 4f1+    1 4f3+    1 4f1+    1 4f3+    1 4f1+    1 4f3+    1 4f1+ 
                                   1 4f3+    1 4f1+    1 4f3+    1 6h1+    1 6h3+    1 6h5+    1 6h1+    1 6h3+    1 6h5+    1 6h1+ 
                                   1 6h3+    1 6h5+ 

   1.2   2    -2.2570  -16.7982  0.000000 -0.000000  0.000000 -0.000000  0.000001 -0.000004  0.000023 -0.000052  0.000227 -0.000458
                                 0.001834 -0.006894  0.045531 -0.123726 -0.298111  0.346017  0.291104  0.043206 -0.004464  0.002693
                                 0.160592  0.534700 -0.000748 -0.000000 -0.000000 -0.000000 -0.000000 -0.000000  0.000000 -0.000000
                                -0.000000  0.000000 -0.000000  0.000000  0.000000  0.000000 -0.000000 -0.000000  0.000000  0.000000
                                 0.000000 -0.000000

   2.2   0     0.1058   -1.6369  0.000000 -0.000000  0.000000 -0.000000  0.000001 -0.000004  0.000014 -0.000045  0.000129 -0.000349
                                 0.000873 -0.002144  0.005174 -0.017606  0.469931  0.060209  0.058025 -0.116482  0.316598 -0.755232
                                -0.492522 -0.066441  1.426261  0.000000  0.000000  0.000000 -0.000000 -0.000000  0.000000  0.000000
                                -0.000000 -0.000000  0.000000 -0.000000 -0.000000  0.000000  0.000000  0.000000 -0.000000 -0.000000
                                -0.000000 -0.000000

   3.2   0     0.2063   -2.7261 -0.000000  0.000000 -0.000000  0.000000 -0.000002  0.000009 -0.000035  0.000112 -0.000331  0.000874
                                -0.002270  0.005857 -0.017706  0.057310 -1.075988 -0.189475 -0.180831  0.322012 -0.745294  2.125385
                                 1.145276  0.085845 -1.083946  0.000000 -0.000000  0.000000 -0.000000  0.000000 -0.000000  0.000000
                                -0.000000 -0.000000  0.000000 -0.000000 -0.000000  0.000000  0.000000  0.000000 -0.000000 -0.000000
                                -0.000000 -0.000000

                                   1 2py     1 2py     1 2py     1 2py     1 2py     1 2py     1 2py     1 2py     1 2py     1 2py  
                                   1 2py     1 2py     1 2py     1 2py     1 2py     1 2py     1 2py     1 2py     1 2py     1 2py  
                                   1 2py     1 2py     1 2py     1 4f1-    1 4f3-    1 4f1-    1 4f3-    1 4f1-    1 4f3-    1 4f1- 
                                   1 4f3-    1 4f1-    1 4f3-    1 6h1-    1 6h3-    1 6h5-    1 6h1-    1 6h3-    1 6h5-    1 6h1- 
                                   1 6h3-    1 6h5- 

   1.3   2    -2.2570  -16.7982  0.000000 -0.000000  0.000000 -0.000000  0.000001 -0.000004  0.000023 -0.000052  0.000227 -0.000458
                                 0.001834 -0.006894  0.045531 -0.123726 -0.298111  0.346017  0.291104  0.043206 -0.004464  0.002693
                                 0.160592  0.534700 -0.000748 -0.000000  0.000000 -0.000000  0.000000 -0.000000  0.000000  0.000000
                                -0.000000  0.000000 -0.000000  0.000000  0.000000  0.000000 -0.000000 -0.000000 -0.000000  0.000000
                                 0.000000  0.000000

   2.3   0     0.1058   -1.6369  0.000000 -0.000000  0.000000 -0.000000  0.000001 -0.000004  0.000014 -0.000045  0.000129 -0.000349
                                 0.000873 -0.002144  0.005174 -0.017606  0.469931  0.060209  0.058025 -0.116482  0.316598 -0.755232
                                -0.492522 -0.066441  1.426261  0.000000  0.000000  0.000000 -0.000000 -0.000000  0.000000  0.000000
                                -0.000000 -0.000000  0.000000 -0.000000  0.000000 -0.000000  0.000000 -0.000000  0.000000 -0.000000
                                 0.000000 -0.000000

   3.3   0     0.2063   -2.7261 -0.000000  0.000000 -0.000000  0.000000 -0.000002  0.000009 -0.000035  0.000112 -0.000331  0.000874
                                -0.002270  0.005857 -0.017706  0.057310 -1.075988 -0.189475 -0.180831  0.322012 -0.745294  2.125385
                                 1.145276  0.085845 -1.083946  0.000000 -0.000000  0.000000 -0.000000  0.000000 -0.000000  0.000000
                                -0.000000  0.000000  0.000000 -0.000000  0.000000 -0.000000  0.000000 -0.000000  0.000000 -0.000000
                                 0.000000 -0.000000

                                   1 3d2-    1 3d2-    1 3d2-    1 3d2-    1 3d2-    1 3d2-    1 3d2-    1 3d2-    1 3d2-    1 3d2- 
                                   1 3d2-    1 3d2-    1 3d2-    1 3d2-    1 3d2-    1 3d2-    1 3d2-    1 5g2-    1 5g4-    1 5g2- 
                                   1 5g4-    1 5g2-    1 5g4-    1 5g2-    1 5g4-    1 7i2-    1 7i6-    1 7i4-    1 7i2-    1 7i6- 
                                   1 7i4- 

   1.4   2    -0.1636  -10.9328  0.000000 -0.000000  0.000021  0.000015  0.000373  0.000235  0.005432 -0.029676  0.041448  0.208801
                                 0.347480  0.326774  0.215183  0.083557  0.037703  0.023778  0.009577 -0.000000 -0.000000 -0.000000
                                 0.000000 -0.000000  0.000000 -0.000000  0.000000  0.000000 -0.000000  0.000000  0.000000 -0.000000
                                -0.000000

   2.4   0     0.2066   -2.0791  0.000001 -0.000008  0.000039 -0.000164  0.000508 -0.001625  0.004134 -0.012057  0.071705  0.667725
                                 0.560961 -0.227484  0.231269 -0.560607 -0.494685 -0.748971  1.293124  0.000000 -0.000000 -0.000000
                                 0.000000  0.000000 -0.000000 -0.000000  0.000000 -0.000000  0.000000 -0.000000 -0.000000  0.000000
                                 0.000000

   3.4   0     0.4787   -3.2207 -0.000003  0.000021 -0.000117  0.000441 -0.001592  0.004329 -0.014231  0.049019 -0.221081 -1.974313
                                -1.777114  0.488329 -0.863949  1.899428  1.355423  2.095622 -0.847454  0.000000 -0.000000 -0.000000
                                 0.000000  0.000000 -0.000000 -0.000000  0.000000 -0.000000  0.000000 -0.000000 -0.000000  0.000000
                                 0.000000

                                   1 2pz     1 2pz     1 2pz     1 2pz     1 2pz     1 2pz     1 2pz     1 2pz     1 2pz     1 2pz  
                                   1 2pz     1 2pz     1 2pz     1 2pz     1 2pz     1 2pz     1 2pz     1 2pz     1 2pz     1 2pz  
                                   1 2pz     1 2pz     1 2pz     1 4f0     1 4f2+    1 4f0     1 4f2+    1 4f0     1 4f2+    1 4f0  
                                   1 4f2+    1 4f0     1 4f2+    1 6h2+    1 6h4+    1 6h0     1 6h2+    1 6h4+    1 6h0     1 6h2+ 
                                   1 6h4+    1 6h0  

   1.5   2    -2.2570  -16.7982  0.000000 -0.000000  0.000000 -0.000000  0.000001 -0.000004  0.000023 -0.000052  0.000227 -0.000458
                                 0.001834 -0.006894  0.045531 -0.123726 -0.298111  0.346017  0.291104  0.043206 -0.004464  0.002693
                                 0.160592  0.534700 -0.000748 -0.000000 -0.000000  0.000000 -0.000000 -0.000000  0.000000  0.000000
                                -0.000000  0.000000 -0.000000 -0.000000 -0.000000 -0.000000  0.000000  0.000000  0.000000 -0.000000
                                -0.000000  0.000000

   2.5   0     0.1058   -1.6369  0.000000 -0.000000  0.000000 -0.000000  0.000001 -0.000004  0.000014 -0.000045  0.000129 -0.000349
                                 0.000873 -0.002144  0.005174 -0.017606  0.469931  0.060209  0.058025 -0.116482  0.316598 -0.755232
                                -0.492522 -0.066441  1.426261 -0.000000  0.000000  0.000000 -0.000000 -0.000000  0.000000  0.000000
                                -0.000000 -0.000000  0.000000  0.000000 -0.000000 -0.000000 -0.000000  0.000000  0.000000 -0.000000
                                -0.000000  0.000000

   3.5   0     0.2063   -2.7261 -0.000000  0.000000 -0.000000  0.000000 -0.000002  0.000009 -0.000035  0.000112 -0.000331  0.000874
                                -0.002270  0.005857 -0.017706  0.057310 -1.075988 -0.189475 -0.180831  0.322012 -0.745294  2.125385
                                 1.145276  0.085845 -1.083946  0.000000 -0.000000  0.000000 -0.000000  0.000000 -0.000000  0.000000
                                -0.000000 -0.000000  0.000000  0.000000 -0.000000 -0.000000 -0.000000  0.000000  0.000000 -0.000000
                                -0.000000  0.000000

                                   1 3d1+    1 3d1+    1 3d1+    1 3d1+    1 3d1+    1 3d1+    1 3d1+    1 3d1+    1 3d1+    1 3d1+ 
                                   1 3d1+    1 3d1+    1 3d1+    1 3d1+    1 3d1+    1 3d1+    1 3d1+    1 5g1+    1 5g3+    1 5g1+ 
                                   1 5g3+    1 5g1+    1 5g3+    1 5g1+    1 5g3+    1 7i5+    1 7i3+    1 7i1+    1 7i5+    1 7i3+ 
                                   1 7i1+ 

   1.6   2    -0.1636  -10.9328  0.000000 -0.000000  0.000021  0.000015  0.000373  0.000235  0.005432 -0.029676  0.041448  0.208801
                                 0.347480  0.326774  0.215183  0.083557  0.037703  0.023778  0.009577  0.000000 -0.000000 -0.000000
                                 0.000000 -0.000000  0.000000 -0.000000  0.000000 -0.000000 -0.000000  0.000000 -0.000000 -0.000000
                                 0.000000

   2.6   0     0.2066   -2.0791  0.000001 -0.000008  0.000039 -0.000164  0.000508 -0.001625  0.004134 -0.012057  0.071705  0.667725
                                 0.560961 -0.227484  0.231269 -0.560607 -0.494685 -0.748971  1.293124  0.000000 -0.000000 -0.000000
                                 0.000000  0.000000 -0.000000 -0.000000  0.000000  0.000000  0.000000 -0.000000  0.000000  0.000000
                                -0.000000

   3.6   0     0.4787   -3.2207 -0.000003  0.000021 -0.000117  0.000441 -0.001592  0.004329 -0.014231  0.049019 -0.221081 -1.974313
                                -1.777114  0.488329 -0.863949  1.899428  1.355423  2.095622 -0.847454  0.000000 -0.000000 -0.000000
                                 0.000000  0.000000 -0.000000 -0.000000  0.000000  0.000000  0.000000 -0.000000  0.000000  0.000000
                                -0.000000

                                   1 3d1-    1 3d1-    1 3d1-    1 3d1-    1 3d1-    1 3d1-    1 3d1-    1 3d1-    1 3d1-    1 3d1- 
                                   1 3d1-    1 3d1-    1 3d1-    1 3d1-    1 3d1-    1 3d1-    1 3d1-    1 5g1-    1 5g3-    1 5g1- 
                                   1 5g3-    1 5g1-    1 5g3-    1 5g1-    1 5g3-    1 7i5-    1 7i3-    1 7i1-    1 7i5-    1 7i3- 
                                   1 7i1- 

   1.7   2    -0.1636  -10.9328  0.000000 -0.000000  0.000021  0.000015  0.000373  0.000235  0.005432 -0.029676  0.041448  0.208801
                                 0.347480  0.326774  0.215183  0.083557  0.037703  0.023778  0.009577 -0.000000 -0.000000 -0.000000
                                 0.000000  0.000000  0.000000 -0.000000  0.000000  0.000000 -0.000000 -0.000000 -0.000000 -0.000000
                                 0.000000

   2.7   0     0.2066   -2.0791  0.000001 -0.000008  0.000039 -0.000164  0.000508 -0.001625  0.004134 -0.012057  0.071705  0.667725
                                 0.560961 -0.227484  0.231269 -0.560607 -0.494685 -0.748971  1.293124  0.000000 -0.000000 -0.000000
                                 0.000000  0.000000 -0.000000 -0.000000  0.000000 -0.000000  0.000000  0.000000  0.000000  0.000000
                                -0.000000

   3.7   0     0.4787   -3.2207 -0.000003  0.000021 -0.000117  0.000441 -0.001592  0.004329 -0.014231  0.049019 -0.221081 -1.974313
                                -1.777114  0.488329 -0.863949  1.899428  1.355423  2.095622 -0.847454  0.000000 -0.000000 -0.000000
                                 0.000000  0.000000 -0.000000 -0.000000  0.000000 -0.000000  0.000000  0.000000  0.000000 -0.000000
                                 0.000000

                                   1 4f2-    1 4f2-    1 4f2-    1 4f2-    1 4f2-    1 6h4-    1 6h2-    1 6h4-    1 6h2-    1 6h4- 
                                   1 6h2- 

   1.8   0     0.6473   -3.1787  0.007326 -0.010103  0.085738 -0.223062  1.110919  0.000000 -0.000000 -0.000000  0.000000  0.000000
                                -0.000000

   2.8   0     1.5206   -4.5803  0.019318  0.118101 -0.033748  1.232452 -0.615298  0.000000 -0.000000 -0.000000  0.000000  0.000000
                                -0.000000

 HOMO      4.1     0.008051 =       0.2191eV
 LUMO      2.2     0.105848 =       2.8803eV
 LUMO-HOMO         0.097797 =       2.6612eV


 **********************************************************************************************************************************
 DATASETS  * FILE   NREC   LENGTH (MB)   RECORD NAMES
              1      19       20.65       500      610      700      900      950      970     1000      129      960     1100   
                                          VAR    BASINP    GEOM    SYMINP    ZMAT    AOBASIS   BASIS     P2S    ABASIS      S 
                                         1400     1410     1420     1200     1210     1080     1600     1650     1700   
                                           T        V       ECP      H0       H01     AOSYM     SMH    MOLCAS    OPER   

              2       5        5.82       200      700     1000      520     4202   
                                        OPTIONS   GEOM     BASIS   MCVARS     RHF  

 PROGRAMS   *        TOTAL       RHF  RCCSD(T)       RHF       INT
 CPU TIMES  *        60.98      0.95     29.35      0.57     29.13
 REAL TIME  *        76.61 SEC
 DISK USED  *         6.19 GB      
 SF USED    *       917.24 MB      
 GA USED    *         0.00 MB       (max)       0.00 MB       (current)
 **********************************************************************************************************************************


 PROGRAM * POP (Mulliken population analysis)

 
 Density matrix read from record         4202.2  Type=RHF/CHARGE (state 1.1)
 
 Population analysis by basis function type

 Unique atom        s        p        d        f        g    Total    Charge
   1  PD      3.00000  6.00000 10.00000  0.00000  0.00000 19.00000  - 1.00000


 **********************************************************************************************************************************
 DATASETS  * FILE   NREC   LENGTH (MB)   RECORD NAMES
              1      19       20.65       500      610      700      900      950      970     1000      129      960     1100   
                                          VAR    BASINP    GEOM    SYMINP    ZMAT    AOBASIS   BASIS     P2S    ABASIS      S 
                                         1400     1410     1420     1200     1210     1080     1600     1650     1700   
                                           T        V       ECP      H0       H01     AOSYM     SMH    MOLCAS    OPER   

              2       5        5.82       200      700     1000      520     4202   
                                        OPTIONS   GEOM     BASIS   MCVARS     RHF  

 PROGRAMS   *        TOTAL       POP       RHF  RCCSD(T)       RHF       INT
 CPU TIMES  *        60.98      0.00      0.95     29.35      0.57     29.13
 REAL TIME  *        76.62 SEC
 DISK USED  *         6.19 GB      
 SF USED    *       917.24 MB      
 GA USED    *         0.00 MB       (max)       0.00 MB       (current)
 **********************************************************************************************************************************


 PROGRAM * MULTI (Direct Multiconfiguration SCF)       Authors: P.J. Knowles, H.-J. Werner (1984)     S.T. Elbert (1988)


 Number of closed-shell orbitals:   9 (   3   1   1   1   1   1   1   0 )
 Number of active  orbitals:        1 (   1   0   0   0   0   0   0   0 )
 Number of external orbitals:     303 (  79  41  41  30  41  30  30  11 )

 State symmetry 1

 Number of electrons:     1    Spin symmetry=Doublet   Space symmetry=1
 Number of states:        1
 Number of CSFs:          1   (1 determinants, 1 intermediate states)

 Molecular orbitals read from record     4202.2  Type=RHF/CANONICAL (state 1.1)
 *** IN SYMMETRY 1 ORBITAL  2 SYMMETRY CONTAMINATION OF 0.258D+00 HAS BEEN REMOVED
 *** IN SYMMETRY 1 ORBITAL  3 SYMMETRY CONTAMINATION OF 0.258D+00 HAS BEEN REMOVED

 EXTRA SYMMETRY OF MOS IN SYMMETRY 1:   1 3 2 1 1 2 3 1 2 3   1 2 3 5 4 6 1 2 3 6   5 4 3 2 1 5 6 410 7   8 9 2 3 1 5 4 6 9 7
                                        810 3 2 1 3 2 2 3 1   3 2 1 1 3 2 1 3 2 1   1 3 2 1 3 2 1 3 2 1   1 2 3 1 1 1 1 1 1 1
                                        1 1 1
 EXTRA SYMMETRY OF MOS IN SYMMETRY 2:   1 1 1 1 3 2 1 2 3 6   4 5 1 2 3 4 6 5 3 2   1 6 4 5 3 2 1 1 1 1   1 1 1 1 1 1 1 1 1 1
                                        1 1
 EXTRA SYMMETRY OF MOS IN SYMMETRY 3:   1 1 1 1 3 2 1 3 2 6   5 4 1 2 3 6 4 5 2 3   1 6 4 5 2 3 1 1 1 1   1 1 1 1 1 1 1 1 1 1
                                        1 1
 EXTRA SYMMETRY OF MOS IN SYMMETRY 4:   1 1 1 1 3 2 1 3 2 1   3 2 5 4 6 1 3 2 5 4   6 1 1 1 1 1 1 1 1 1   1
 EXTRA SYMMETRY OF MOS IN SYMMETRY 5:   1 1 1 1 3 2 1 2 3 4   5 6 1 2 3 6 5 4 2 3   1 4 5 6 3 2 1 1 1 1   1 1 1 1 1 1 1 1 1 1
                                        1 1
 EXTRA SYMMETRY OF MOS IN SYMMETRY 6:   1 1 1 1 2 3 1 2 3 1   2 3 6 4 5 1 3 2 6 4   5 1 1 1 1 1 1 1 1 1   1
 EXTRA SYMMETRY OF MOS IN SYMMETRY 7:   1 1 1 1 3 2 1 3 2 1   3 2 4 5 6 1 3 2 4 5   6 1 1 1 1 1 1 1 1 1   1
 EXTRA SYMMETRY OF MOS IN SYMMETRY 8:   1 1 2 3 1 2 3 1 2 3   1

 Wavefunction dump at record             5202.2

 Convergence thresholds  0.10E-01 (gradient)  0.10E-05 (energy)  0.10E-02 (step length)

 Number of orbital rotations:      532   (     3 Core/Active    450 Core/Virtual   0 Active/Active     79 Active/Virtual)
 Total number of variables:        533


 ITER. MIC  NCI  NEG     ENERGY(VAR)     ENERGY(PROJ)   ENERGY CHANGE     GRAD(0)  GRAD(ORB)   GRAD(CI)     STEP       TIME

   1   27    4    0    -126.60045565    -126.60045565   -0.00000000    0.00000035 0.00000000 0.00000000  0.13D-05      0.68

 ** WVFN ****  CONVERGENCE REACHED, FINAL GRADIENT:  0.10D-10


 First order charge density matrix for state 1.1 saved on record  5202.2 (density set 1)

 Results for state 1.1
 =====================

 !MCSCF STATE 1.1 Energy             -126.600455652204
 Nuclear energy                         0.00000000
 Kinetic energy                        48.75037464
 One electron energy                 -230.64567571
 Two electron energy                  104.04522006
 Virial ratio                           3.59691247

 !MCSCF STATE 1.1 Dipole moment         0.00000000     0.00000000     0.00000000
 Dipole moment /Debye                   0.00000000     0.00000000     0.00000000


 NATURAL ORBITALS
 ================

   Orb     Occ        Energy       Coefficients

                                   1 1s      1 1s      1 1s      1 1s      1 1s      1 1s      1 1s      1 1s      1 1s      1 1s   
                                   1 1s      1 1s      1 1s      1 1s      1 1s      1 1s      1 1s      1 1s      1 1s      1 1s   
                                   1 1s      1 1s      1 1s      1 1s      1 1s      1 1s      1 1s      1 1s      1 1s      1 3d0  
                                   1 3d2+    1 3d0     1 3d2+    1 3d0     1 3d2+    1 3d0     1 3d2+    1 3d0     1 3d2+    1 3d0  
                                   1 3d2+    1 3d0     1 3d2+    1 3d0     1 3d2+    1 3d0     1 3d2+    1 3d0     1 3d2+    1 3d0  
                                   1 3d2+    1 3d0     1 3d2+    1 3d0     1 3d2+    1 3d0     1 3d2+    1 3d0     1 3d2+    1 3d0  
                                   1 3d2+    1 3d0     1 3d2+    1 5g0     1 5g4+    1 5g2+    1 5g0     1 5g4+    1 5g2+    1 5g0  
                                   1 5g4+    1 5g2+    1 5g0     1 5g4+    1 5g2+    1 7i6+    1 7i4+    1 7i2+    1 7i0     1 7i6+ 
                                   1 7i4+    1 7i2+    1 7i0  

   1.1  2.00000    -3.692918     0.000000  0.000000 -0.000000  0.000000 -0.000000  0.000000 -0.000001  0.000004 -0.000006  0.000031
                                -0.000048  0.000211 -0.000344  0.001283 -0.002535  0.007578 -0.018006  0.015410  0.216005 -0.695808
                                -0.178195  0.910894  0.538261  0.035370 -0.014987  0.006147  0.085756 -0.086933 -0.001592  0.000000
                                 0.000000  0.000000  0.000000  0.000000  0.000000  0.000000  0.000000  0.000000  0.000000  0.000000
                                 0.000000  0.000000  0.000000  0.000000  0.000000  0.000000  0.000000  0.000000  0.000000  0.000000
                                 0.000000  0.000000  0.000000  0.000000  0.000000  0.000000  0.000000  0.000000  0.000000  0.000000
                                 0.000000  0.000000  0.000000  0.000000  0.000000  0.000000  0.000000  0.000000  0.000000  0.000000
                                 0.000000  0.000000  0.000000  0.000000  0.000000  0.000000  0.000000  0.000000  0.000000  0.000000
                                 0.000000  0.000000  0.000000

   2.1  2.00000    -0.163572     0.000000  0.000000  0.000000  0.000000  0.000000  0.000000  0.000000  0.000000  0.000000  0.000000
                                 0.000000  0.000000  0.000000  0.000000  0.000000  0.000000  0.000000  0.000000  0.000000  0.000000
                                 0.000000  0.000000  0.000000  0.000000  0.000000  0.000000  0.000000  0.000000  0.000000  0.000000
                                 0.000000  0.000000 -0.000000  0.000000  0.000021  0.000000  0.000015  0.000000  0.000373  0.000000
                                 0.000235  0.000000  0.005432  0.000000 -0.029676  0.000000  0.041448  0.000000  0.208801  0.000000
                                 0.347480  0.000000  0.326774  0.000000  0.215183  0.000000  0.083557  0.000000  0.037703  0.000000
                                 0.023778  0.000000  0.009577  0.000000  0.000000  0.000000  0.000000  0.000000  0.000000  0.000000
                                 0.000000  0.000000  0.000000  0.000000  0.000000  0.000000  0.000000  0.000000  0.000000  0.000000
                                 0.000000  0.000000  0.000000

   3.1  2.00000    -0.163572     0.000000  0.000000  0.000000  0.000000  0.000000  0.000000  0.000000  0.000000  0.000000  0.000000
                                 0.000000  0.000000  0.000000  0.000000  0.000000  0.000000  0.000000  0.000000  0.000000  0.000000
                                 0.000000  0.000000  0.000000  0.000000  0.000000  0.000000  0.000000  0.000000  0.000000 -0.000000
                                 0.000000  0.000000  0.000000 -0.000021  0.000000 -0.000015  0.000000 -0.000373  0.000000 -0.000235
                                 0.000000 -0.005432  0.000000  0.029676  0.000000 -0.041448  0.000000 -0.208801  0.000000 -0.347480
                                 0.000000 -0.326774  0.000000 -0.215183  0.000000 -0.083557  0.000000 -0.037703  0.000000 -0.023778
                                 0.000000 -0.009577  0.000000  0.000000  0.000000  0.000000  0.000000  0.000000  0.000000  0.000000
                                 0.000000  0.000000  0.000000  0.000000  0.000000  0.000000  0.000000  0.000000  0.000000  0.000000
                                 0.000000  0.000000  0.000000

   4.1  1.00000     0.071095     0.000000 -0.000000  0.000000 -0.000000  0.000000 -0.000000  0.000000 -0.000001  0.000002 -0.000006
                                 0.000013 -0.000044  0.000091 -0.000276  0.000607 -0.001644  0.003977 -0.006831 -0.010523  0.021234
                                -0.162454  0.151004  0.024447 -0.132775  0.492917 -0.656659  0.155202 -0.302196  1.324923  0.000000
                                 0.000000  0.000000  0.000000  0.000000  0.000000  0.000000  0.000000  0.000000  0.000000  0.000000
                                 0.000000  0.000000  0.000000  0.000000  0.000000  0.000000  0.000000  0.000000  0.000000  0.000000
                                 0.000000  0.000000  0.000000  0.000000  0.000000  0.000000  0.000000  0.000000  0.000000  0.000000
                                 0.000000  0.000000  0.000000  0.000000  0.000000  0.000000  0.000000  0.000000  0.000000  0.000000
                                 0.000000  0.000000  0.000000  0.000000  0.000000  0.000000  0.000000  0.000000  0.000000  0.000000
                                 0.000000  0.000000  0.000000

                                   1 2px     1 2px     1 2px     1 2px     1 2px     1 2px     1 2px     1 2px     1 2px     1 2px  
                                   1 2px     1 2px     1 2px     1 2px     1 2px     1 2px     1 2px     1 2px     1 2px     1 2px  
                                   1 2px     1 2px     1 2px     1 4f1+    1 4f3+    1 4f1+    1 4f3+    1 4f1+    1 4f3+    1 4f1+ 
                                   1 4f3+    1 4f1+    1 4f3+    1 6h1+    1 6h3+    1 6h5+    1 6h1+    1 6h3+    1 6h5+    1 6h1+ 
                                   1 6h3+    1 6h5+ 

   1.2  2.00000    -2.256955     0.000000 -0.000000  0.000000 -0.000000  0.000001 -0.000004  0.000023 -0.000052  0.000227 -0.000458
                                 0.001834 -0.006894  0.045531 -0.123726 -0.298111  0.346017  0.291104  0.043206 -0.004464  0.002693
                                 0.160592  0.534700 -0.000748  0.000000  0.000000  0.000000  0.000000  0.000000  0.000000  0.000000
                                 0.000000  0.000000  0.000000  0.000000  0.000000  0.000000  0.000000  0.000000  0.000000  0.000000
                                 0.000000  0.000000

                                   1 2py     1 2py     1 2py     1 2py     1 2py     1 2py     1 2py     1 2py     1 2py     1 2py  
                                   1 2py     1 2py     1 2py     1 2py     1 2py     1 2py     1 2py     1 2py     1 2py     1 2py  
                                   1 2py     1 2py     1 2py     1 4f1-    1 4f3-    1 4f1-    1 4f3-    1 4f1-    1 4f3-    1 4f1- 
                                   1 4f3-    1 4f1-    1 4f3-    1 6h1-    1 6h3-    1 6h5-    1 6h1-    1 6h3-    1 6h5-    1 6h1- 
                                   1 6h3-    1 6h5- 

   1.3  2.00000    -2.256955     0.000000 -0.000000  0.000000 -0.000000  0.000001 -0.000004  0.000023 -0.000052  0.000227 -0.000458
                                 0.001834 -0.006894  0.045531 -0.123726 -0.298111  0.346017  0.291104  0.043206 -0.004464  0.002693
                                 0.160592  0.534700 -0.000748  0.000000  0.000000  0.000000  0.000000  0.000000  0.000000  0.000000
                                 0.000000  0.000000  0.000000  0.000000  0.000000  0.000000  0.000000  0.000000  0.000000  0.000000
                                 0.000000  0.000000

                                   1 3d2-    1 3d2-    1 3d2-    1 3d2-    1 3d2-    1 3d2-    1 3d2-    1 3d2-    1 3d2-    1 3d2- 
                                   1 3d2-    1 3d2-    1 3d2-    1 3d2-    1 3d2-    1 3d2-    1 3d2-    1 5g2-    1 5g4-    1 5g2- 
                                   1 5g4-    1 5g2-    1 5g4-    1 5g2-    1 5g4-    1 7i2-    1 7i6-    1 7i4-    1 7i2-    1 7i6- 
                                   1 7i4- 

   1.4  2.00000    -0.163572     0.000000 -0.000000  0.000021  0.000015  0.000373  0.000235  0.005432 -0.029676  0.041448  0.208801
                                 0.347480  0.326774  0.215183  0.083557  0.037703  0.023778  0.009577  0.000000  0.000000  0.000000
                                 0.000000  0.000000  0.000000  0.000000  0.000000  0.000000  0.000000  0.000000  0.000000  0.000000
                                 0.000000

                                   1 2pz     1 2pz     1 2pz     1 2pz     1 2pz     1 2pz     1 2pz     1 2pz     1 2pz     1 2pz  
                                   1 2pz     1 2pz     1 2pz     1 2pz     1 2pz     1 2pz     1 2pz     1 2pz     1 2pz     1 2pz  
                                   1 2pz     1 2pz     1 2pz     1 4f0     1 4f2+    1 4f0     1 4f2+    1 4f0     1 4f2+    1 4f0  
                                   1 4f2+    1 4f0     1 4f2+    1 6h2+    1 6h4+    1 6h0     1 6h2+    1 6h4+    1 6h0     1 6h2+ 
                                   1 6h4+    1 6h0  

   1.5  2.00000    -2.256955     0.000000 -0.000000  0.000000 -0.000000  0.000001 -0.000004  0.000023 -0.000052  0.000227 -0.000458
                                 0.001834 -0.006894  0.045531 -0.123726 -0.298111  0.346017  0.291104  0.043206 -0.004464  0.002693
                                 0.160592  0.534700 -0.000748  0.000000  0.000000  0.000000  0.000000  0.000000  0.000000  0.000000
                                 0.000000  0.000000  0.000000  0.000000  0.000000  0.000000  0.000000  0.000000  0.000000  0.000000
                                 0.000000  0.000000

                                   1 3d1+    1 3d1+    1 3d1+    1 3d1+    1 3d1+    1 3d1+    1 3d1+    1 3d1+    1 3d1+    1 3d1+ 
                                   1 3d1+    1 3d1+    1 3d1+    1 3d1+    1 3d1+    1 3d1+    1 3d1+    1 5g1+    1 5g3+    1 5g1+ 
                                   1 5g3+    1 5g1+    1 5g3+    1 5g1+    1 5g3+    1 7i5+    1 7i3+    1 7i1+    1 7i5+    1 7i3+ 
                                   1 7i1+ 

   1.6  2.00000    -0.163572     0.000000 -0.000000  0.000021  0.000015  0.000373  0.000235  0.005432 -0.029676  0.041448  0.208801
                                 0.347480  0.326774  0.215183  0.083557  0.037703  0.023778  0.009577  0.000000  0.000000  0.000000
                                 0.000000  0.000000  0.000000  0.000000  0.000000  0.000000  0.000000  0.000000  0.000000  0.000000
                                 0.000000

                                   1 3d1-    1 3d1-    1 3d1-    1 3d1-    1 3d1-    1 3d1-    1 3d1-    1 3d1-    1 3d1-    1 3d1- 
                                   1 3d1-    1 3d1-    1 3d1-    1 3d1-    1 3d1-    1 3d1-    1 3d1-    1 5g1-    1 5g3-    1 5g1- 
                                   1 5g3-    1 5g1-    1 5g3-    1 5g1-    1 5g3-    1 7i5-    1 7i3-    1 7i1-    1 7i5-    1 7i3- 
                                   1 7i1- 

   1.7  2.00000    -0.163572     0.000000 -0.000000  0.000021  0.000015  0.000373  0.000235  0.005432 -0.029676  0.041448  0.208801
[...]

              2      17       40.51       200      700     1000      520     4202     5202     2104     2106     5202(1)  2108   
                                        OPTIONS   GEOM     BASIS   MCVARS     RHF     MCSCF     RHF      RHF     MCSCF     RHF  
                                         2110     2112     2114     2116     2118     2120     2121   
                                          RHF      RHF      RHF      RHF      RHF      RHF      RHF  

 PROGRAMS   *        TOTAL       RHF  RCCSD(T)       RHF  RCCSD(T)       RHF  RCCSD(T)       RHF     MULTI       POP       RHF
 CPU TIMES  *       354.66      0.80      5.97      0.66     13.15      0.97     16.97      0.16      1.62      0.00      1.30
 REAL TIME  *       496.66 SEC
 DISK USED  *         7.04 GB      
 SF USED    *         1.03 GB      
 GA USED    *         0.00 MB       (max)       0.00 MB       (current)
 **********************************************************************************************************************************
 SETTING SCF(13)        =       -69.61190281  AU                              
 SETTING _CC_NORM_MAX   =         2.00000000                                  


 PROGRAM * CCSD (Restricted open-shell coupled cluster)     Authors: C. Hampel, H.-J. Werner, 1991, M. Deegan, P.J. Knowles, 1992


 Convergence thresholds:  THRVAR = 1.00D-08  THRDEN = 1.00D-06

 CCSD(T)     terms to be evaluated (factor= 1.000)


 Number of closed-shell orbitals:   1 (   1   0   0   0   0   0   0   0 )
 Number of active  orbitals:        3 (   0   1   1   0   1   0   0   0 )
 Number of external orbitals:     309 (  82  41  41  31  41  31  31  11 )

 Memory could be reduced to 40.33 Mwords without degradation in triples

 Number of N-1 electron functions:               5
 Number of N-2 electron functions:              10
 Number of singly external CSFs:               290
 Number of doubly external CSFs:             89708
 Total number of CSFs:                       89998

 Molecular orbitals read from record     2121.2  Type=RHF/CANONICAL (state 1.8)

 Integral transformation finished. Total CPU:   0.71 sec, npass=  1  Memory used:   5.46 MW

 Starting RMP2 calculation

 Wavefunction is spin-projected

 ITER.      SQ.NORM     CORR.ENERGY   TOTAL ENERGY   ENERGY CHANGE        DEN1      VAR(S)    VAR(P)  DIIS     TIME
   1      1.02044236    -0.14692575   -69.75882856    -0.14692575    -0.00011746  0.95D-08  0.18D-04  1  1     0.74
   2      1.02048708    -0.14704792   -69.75895072    -0.00012216    -0.00000001  0.26D-11  0.16D-08  2  2     0.75
   3      1.02048730    -0.14704832   -69.75895113    -0.00000041    -0.00000000  0.24D-15  0.17D-12  3  3     0.75

 Norm of t1 vector:      0.00751584      S-energy:    -0.00046061      T1 diagnostic:  0.00011247
 Norm of t2 vector:      0.14293639      P-energy:    -0.14658771
                                         Alpha-Beta:  -0.11151725
                                         Alpha-Alpha: -0.03507046
                                         Beta-Beta:    0.00000000

 Spin contamination <S**2-Sz**2-Sz>     0.00000000
  Reference energy                    -69.611902806530
  RHF-RMP2 correlation energy          -0.147048323590
 !RHF-RMP2 energy                     -69.758951130120
 (NB above energy spin projected)

 Starting RCCSD calculation

 ITER.      SQ.NORM     CORR.ENERGY   TOTAL ENERGY   ENERGY CHANGE        DEN1      VAR(S)    VAR(P)  DIIS     TIME
   1      1.02468677    -0.15857727   -69.77048007    -0.15857727    -0.00264112  0.10D-04  0.39D-03  1  1     0.97
   2      1.02592395    -0.16139475   -69.77329755    -0.00281748    -0.00002861  0.14D-07  0.38D-05  2  2     1.11
   3      1.02602061    -0.16153603   -69.77343883    -0.00014128    -0.00000038  0.54D-09  0.45D-07  3  3     1.26
   4      1.02602930    -0.16154808   -69.77345088    -0.00001205    -0.00000000  0.24D-10  0.36D-09  4  4     1.41
   5      1.02602961    -0.16154832   -69.77345113    -0.00000024    -0.00000000  0.10D-12  0.21D-11  5  5     1.56

 Norm of t1 vector:      0.00805095      S-energy:    -0.00043928      T1 diagnostic:  0.00113762
                                                                       D1 diagnostic:  0.00160642
 Norm of t2 vector:      0.16113594      P-energy:    -0.16110904
                                         Alpha-Beta:  -0.12529637
                                         Alpha-Alpha: -0.03581267
                                         Beta-Beta:    0.00000000

 Spin contamination <S**2-Sz**2-Sz>     0.00000000

 Memory could be reduced to 41.05 Mwords without degradation in triples
 

  Correlated core orbitals:             1.1       1.2       1.3       1.5
  Orbital energies:                   -13.3398  -11.6045  -11.6045  -11.6045
 
  RCCSD core-core energy               -0.161548319553
 

 RESULTS
 =======

  Reference energy                    -69.611902806530
  RCCSD singles energy                 -0.000439275378
  RCCSD pair energy                    -0.161109044175
  RCCSD correlation energy             -0.161548319553
  Triples (T) contribution             -0.003130932025
  Total correlation energy             -0.164679251579
 
  RHF-RCCSD energy                    -69.773451126083
  RHF-RCCSD[T] energy                 -69.776580622358
  RHF-RCCSD-T energy                  -69.776580358724
 !RHF-RCCSD(T) energy                 -69.776582058108

 Program statistics:

 Available memory in ccsd:               511999732
 Min. memory needed in ccsd:                690971
 Max. memory used in ccsd:                  769427
 Max. memory used in cckext:                799511 ( 5 integral passes)
 Max. memory used in cckint:               5455130 ( 1 integral passes)



 **********************************************************************************************************************************
 DATASETS  * FILE   NREC   LENGTH (MB)   RECORD NAMES
              1      20       29.45       500      610      700      900      950      970     1000      129      960     1100   
                                          VAR    BASINP    GEOM    SYMINP    ZMAT    AOBASIS   BASIS     P2S    ABASIS      S 
                                         1400     1410     1420     1200     1210     1080     1600     1650     1700     1380   
                                           T        V       ECP      H0       H01     AOSYM     SMH    MOLCAS    OPER     JKOP   

              2      17       40.51       200      700     1000      520     4202     5202     2104     2106     5202(1)  2108   
                                        OPTIONS   GEOM     BASIS   MCVARS     RHF     MCSCF     RHF      RHF     MCSCF     RHF  
                                         2110     2112     2114     2116     2118     2120     2121   
                                          RHF      RHF      RHF      RHF      RHF      RHF      RHF  

 PROGRAMS   *        TOTAL  RCCSD(T)       RHF  RCCSD(T)       RHF  RCCSD(T)       RHF  RCCSD(T)       RHF     MULTI       POP
 CPU TIMES  *       357.87      3.21      0.80      5.97      0.66     13.15      0.97     16.97      0.16      1.62      0.00
 REAL TIME  *       501.53 SEC
 DISK USED  *         7.04 GB      
 SF USED    *         1.03 GB      
 GA USED    *         0.00 MB       (max)       0.00 MB       (current)
 **********************************************************************************************************************************
 SETTING CCSD(13)       =       -69.77658206  AU                              

 DO I                   =        14.00000000   

 Running procedure=XVIIS2


 PROGRAM * RHF-SCF (CLOSED SHELL)       Authors: W. Meyer, H.-J. Werner


 NUMBER OF ELECTRONS:       1+    1-    SPACE SYMMETRY=1    SPIN SYMMETRY: Singlet 
 CONVERGENCE THRESHOLDS:    1.00E-05 (Density)    1.00E-07 (Energy)
 MAX. NUMBER OF ITERATIONS:       60
 INTERPOLATION TYPE:            DIIS
 INTERPOLATION STEPS:              2 (START)      1 (STEP)
 LEVEL SHIFTS:                  0.00 (CLOSED)  0.00 (OPEN) 



 Orbital guess generated from atomic densities. Full valence occupancy:    4   1   1   1   1   1   1   0


 Molecular orbital dump at record        2122.2

 Initial occupancy:   1   0   0   0   0   0   0   0

 ITERATION    DDIFF          GRAD             ENERGY        2-EL.EN.            DIPOLE MOMENTS         DIIS   ORB.
    1      0.000D+00      0.000D+00       -31.64156129      1.870170    0.00000    0.00000    0.00000    0    start
    2      0.000D+00      0.157D+00       -32.24046474      2.094975    0.00000    0.00000    0.00000    1    diag
    3      0.292D-01      0.118D-01       -32.24372628      2.111288    0.00000    0.00000    0.00000    2    diag
    4      0.385D-02      0.715D-04       -32.24372637      2.111366    0.00000    0.00000    0.00000    3    diag
    5      0.965D-04      0.172D-05       -32.24372637      2.111364    0.00000    0.00000    0.00000    4    diag
    6      0.622D-06      0.345D-07       -32.24372637      2.111364    0.00000    0.00000    0.00000    0    orth

 Final occupancy:   1   0   0   0   0   0   0   0

 !RHF STATE 1.1 Energy                -32.243726374474
 Nuclear energy                         0.00000000
 One-electron energy                  -33.29940839
 Two-electron energy                    1.05568202
 Virial quotient                       -5.96276190
 !RHF STATE 1.1 Dipole moment           0.00000000     0.00000000     0.00000000
 Dipole moment /Debye                   0.00000000     0.00000000     0.00000000

 Orbital energies:

         1.1          2.1          3.1
    -15.594022   -10.893773   -10.893773

         1.2          2.2
    -13.316951    -8.557493

         1.3          2.3
    -13.316951    -8.557493

         1.4          2.4
    -10.893773    -6.430152

         1.5          2.5
    -13.316951    -8.557493

         1.6          2.6
    -10.893773    -6.430152

         1.7          2.7
    -10.893773    -6.430152

         1.8          2.8
     -8.557493    -5.389993

 HOMO      1.1   -15.594022 =    -424.3349eV
 LUMO      1.3   -13.316951 =    -362.3727eV
 LUMO-HOMO         2.277071 =      61.9623eV


 **********************************************************************************************************************************
 DATASETS  * FILE   NREC   LENGTH (MB)   RECORD NAMES
              1      20       29.45       500      610      700      900      950      970     1000      129      960     1100   
                                          VAR    BASINP    GEOM    SYMINP    ZMAT    AOBASIS   BASIS     P2S    ABASIS      S 
                                         1400     1410     1420     1200     1210     1080     1600     1650     1700     1380   
                                           T        V       ECP      H0       H01     AOSYM     SMH    MOLCAS    OPER     JKOP   

              2      18       43.50       200      700     1000      520     4202     5202     2104     2106     5202(1)  2108   
                                        OPTIONS   GEOM     BASIS   MCVARS     RHF     MCSCF     RHF      RHF     MCSCF     RHF  
                                         2110     2112     2114     2116     2118     2120     2121     2122   
                                          RHF      RHF      RHF      RHF      RHF      RHF      RHF      RHF  

 PROGRAMS   *        TOTAL       RHF  RCCSD(T)       RHF  RCCSD(T)       RHF  RCCSD(T)       RHF  RCCSD(T)       RHF     MULTI
 CPU TIMES  *       358.75      0.86      3.21      0.80      5.97      0.66     13.15      0.97     16.97      0.16      1.62
 REAL TIME  *       502.55 SEC
 DISK USED  *         7.04 GB      
 SF USED    *         1.03 GB      
 GA USED    *         0.00 MB       (max)       0.00 MB       (current)
 **********************************************************************************************************************************
 SETTING SCF(14)        =       -32.24372637  AU                              
 SETTING _CC_NORM_MAX   =         2.00000000                                  


 PROGRAM * CCSD (Restricted open-shell coupled cluster)     Authors: C. Hampel, H.-J. Werner, 1991, M. Deegan, P.J. Knowles, 1992


 Convergence thresholds:  THRVAR = 1.00D-08  THRDEN = 1.00D-06

 CCSD(T)     terms to be evaluated (factor= 1.000)


 Number of closed-shell orbitals:   1 (   1   0   0   0   0   0   0   0 )
 Number of external orbitals:     312 (  82  42  42  31  42  31  31  11 )

 Memory could be reduced to 29.01 Mwords without degradation in triples

 Number of N-1 electron functions:               2
 Number of N-2 electron functions:               1
 Number of singly external CSFs:               164
 Number of doubly external CSFs:             15020
 Total number of CSFs:                       15184

 Molecular orbitals read from record     2122.2  Type=RHF/CANONICAL (state 1.1)

 Integral transformation finished. Total CPU:   0.15 sec, npass=  1  Memory used:   2.11 MW

 Starting RMP2 calculation

 Wavefunction is spin-projected

 ITER.      SQ.NORM     CORR.ENERGY   TOTAL ENERGY   ENERGY CHANGE        DEN1      VAR(S)    VAR(P)  DIIS     TIME
   1      1.01101616    -0.06015777   -32.30388414    -0.06015777    -0.00007977  0.17D-19  0.16D-04  1  1     0.19
   2      1.01105143    -0.06024077   -32.30396715    -0.00008301    -0.00000000  0.69D-23  0.34D-09  2  2     0.19
   3      1.01105153    -0.06024093   -32.30396730    -0.00000015    -0.00000000  0.12D-27  0.45D-14  3  3     0.19

 Norm of t1 vector:      0.00000000      S-energy:    -0.00000000      T1 diagnostic:  0.00000000
 Norm of t2 vector:      0.10512624      P-energy:    -0.06024093
                                         Alpha-Beta:  -0.06024093
                                         Alpha-Alpha:  0.00000000
                                         Beta-Beta:    0.00000000

 Spin contamination <S**2-Sz**2-Sz>     0.00000000
  Reference energy                    -32.243726374473
  RHF-RMP2 correlation energy          -0.060240925765
 !RHF-RMP2 energy                     -32.303967300238
 (NB above energy spin projected)

 Starting RCCSD calculation

 ITER.      SQ.NORM     CORR.ENERGY   TOTAL ENERGY   ENERGY CHANGE        DEN1      VAR(S)    VAR(P)  DIIS     TIME
   1      1.01504325    -0.06724530   -32.31097168    -0.06724530    -0.00297106  0.30D-05  0.57D-03  1  1     0.22
   2      1.01745963    -0.07109745   -32.31482382    -0.00385214    -0.00003957  0.16D-07  0.58D-05  2  2     0.26
   3      1.01771122    -0.07143985   -32.31516622    -0.00034240    -0.00000032  0.31D-09  0.34D-07  3  3     0.30
   4      1.01770834    -0.07143287   -32.31515924     0.00000698    -0.00000000  0.56D-12  0.14D-09  4  4     0.34
   5      1.01770891    -0.07143368   -32.31516005    -0.00000081    -0.00000000  0.10D-13  0.11D-12  5  5     0.38

 Norm of t1 vector:      0.00222695      S-energy:    -0.00000000      T1 diagnostic:  0.00111347
                                                                       D1 diagnostic:  0.00157469
 Norm of t2 vector:      0.13305620      P-energy:    -0.07143368
                                         Alpha-Beta:  -0.07143368
                                         Alpha-Alpha:  0.00000000
                                         Beta-Beta:    0.00000000

 Doubles amplitudes (print threshold =  0.500E-01):

         I         J         SYM. A    SYM. B    A         B      T(IJ, AB) [Alpha-Beta]

         1         1         2         2         1         1     -0.07467491
         1         1         3         3         1         1     -0.07467491
         1         1         5         5         1         1     -0.07467491

 Spin contamination <S**2-Sz**2-Sz>     0.00000000

 Memory could be reduced to 28.62 Mwords without degradation in triples
 

  Correlated core orbitals:             1.1
  Orbital energies:                   -15.5940
 
  RCCSD core-core energy               -0.071433679043
 

 RESULTS
 =======

  Reference energy                    -32.243726374473
  RCCSD singles energy                 -0.000000000085
  RCCSD pair energy                    -0.071433678958
  RCCSD correlation energy             -0.071433679043
  Triples (T) contribution              0.000000000000
  Total correlation energy             -0.071433679043
 
  RHF-RCCSD energy                    -32.315160053517
  RHF-RCCSD[T] energy                 -32.315160053517
  RHF-RCCSD-T energy                  -32.315160053517
 !RHF-RCCSD(T) energy                 -32.315160053517

 Program statistics:

 Available memory in ccsd:               511999882
 Min. memory needed in ccsd:                426629
 Max. memory used in ccsd:                  426629
 Max. memory used in cckext:                571486 ( 5 integral passes)
 Max. memory used in cckint:               2111599 ( 1 integral passes)



 **********************************************************************************************************************************
 DATASETS  * FILE   NREC   LENGTH (MB)   RECORD NAMES
              1      20       29.45       500      610      700      900      950      970     1000      129      960     1100   
                                          VAR    BASINP    GEOM    SYMINP    ZMAT    AOBASIS   BASIS     P2S    ABASIS      S 
                                         1400     1410     1420     1200     1210     1080     1600     1650     1700     1380   
                                           T        V       ECP      H0       H01     AOSYM     SMH    MOLCAS    OPER     JKOP   

              2      18       43.50       200      700     1000      520     4202     5202     2104     2106     5202(1)  2108   
                                        OPTIONS   GEOM     BASIS   MCVARS     RHF     MCSCF     RHF      RHF     MCSCF     RHF  
                                         2110     2112     2114     2116     2118     2120     2121     2122   
                                          RHF      RHF      RHF      RHF      RHF      RHF      RHF      RHF  

 PROGRAMS   *        TOTAL  RCCSD(T)       RHF  RCCSD(T)       RHF  RCCSD(T)       RHF  RCCSD(T)       RHF  RCCSD(T)       RHF
 CPU TIMES  *       359.59      0.82      0.86      3.21      0.80      5.97      0.66     13.15      0.97     16.97      0.16
 REAL TIME  *       503.77 SEC
 DISK USED  *         7.04 GB      
 SF USED    *         1.03 GB      
 GA USED    *         0.00 MB       (max)       0.00 MB       (current)
 **********************************************************************************************************************************
 SETTING CCSD(14)       =       -32.31516005  AU                              
 Output type csv         
                                                                                                                                                                                                                                                                

        SCF,CCSD
   -126.60913219,   -127.43423547
   -126.60045565,   -127.45440984
   -126.60544135,   -127.44616834
   -126.60559294,   -127.40079483
   -126.53051361,   -127.31710348
   -126.37265818,   -127.12369836
   -126.28593896,   -127.01106411
   -125.73132409,   -126.41122539
   -124.58857078,   -125.20696451
   -122.89536131,   -123.45804050
   -120.65771056,   -121.15732358
    -98.40128916,    -98.73019275
    -69.61190281,    -69.77658206
    -32.24372637,    -32.31516005
                                                  

 RCCSD(T)/USERDEF energy=    -32.315160053517

        RCCSD(T)        RHF-SCF         RCCSD(T)        RHF-SCF         RCCSD(T)        RHF-SCF         RCCSD(T)        RHF-SCF 
    -32.31516005    -32.24372637    -69.77658206    -69.61190281    -98.73019275    -98.40128916   -121.15732358   -120.65771056
 **********************************************************************************************************************************
 Molpro calculation terminated
 Variable memory released
