
 Primary working directories    : /global/cscratch1/sd/bkincaid
 Secondary working directories  : /global/cscratch1/sd/bkincaid
 Wavefunction directory         : /global/homes/b/bkincaid/wfu/
 Main file repository           : /global/cscratch1/sd/bkincaid/

 SHA1      : 19cd028119e0e09f93f0674bd8af7968d9b3eff6
 NAME      : 2015.1.36
 ARCHNAME  : linux/x86_64
 FC        : /opt/cray/pe/craype/2.5.14/bin/ftn
 BLASLIB   : -L/opt/intel/compilers_and_libraries_2018.1.163/linux/mkl/lib/intel64 -Wl,-_start-group -lmkl_intel_ilp64 -lmkl_intel_thread -lmkl_core -Wl,-_end-group -liomp5
 id        : lbl

 Nodes     nprocs
 nid12797    11
 Number of processes for MPI-2 version of Molpro:   nprocs(total)=   12   nprocs(compute)=   11   nprocs(helper)=    1

 Using customized tuning parameters: mindgm=7; mindgv=16; mindgc=1; mindgr=1; noblas=0; minvec=7
 default implementation of scratch files=sf  

 ***,Calculation for IrO groundstate
 memory,1024,m
 gthresh,twoint=1.0E-15
 gthresh,throvl=1.0E-15
                                                                                 !symmetry,nosym
 
 basis={
 Including file /global/u1/b/bkincaid/molpro/Ir/molecules/tz/IrO/ecps/bk2.5/bk2.5
 
 Including file /global/u1/b/bkincaid/molpro/Ir/molecules/tz/IrO/ecps/bk2.5/tz.basis
 
 ecp,O,2,1,0
 3
 1,  12.30997,  6.000000
 3,  14.76962,  73.85984
 2,  13.71419, -47.87600
 1
 2,  13.65512,  85.86406
 
 Including file /global/u1/b/bkincaid/molpro/Ir/molecules/tz/IrO/ecps/bk2.5/O-aug-cc-CVTZ.basis
 }
 
 ne = 23
 
 A1=6
 B1=2
 B2=3
 A2=1
 
 
 do i=1,5
         if(i.eq.1) then
                 z(i) = 1.500
         else if(i.eq.2) then
                 z(i) = 1.600
         else if(i.eq.3) then
                 z(i) = 1.700
         else if(i.eq.4) then
                 z(i) = 1.800
         else if(i.eq.5) then
                 z(i) = 1.900
         endif
 
 geometry={
 2
 IrO
 Ir 0.0 0.0 0.0
 O 0.0 0.0 z(i)
 }
 
 
 {rhf,maxdis=35,iptyp='DIIS',nitord=30,maxit=60; shift,-1.0,-0.5
 wf,nelec=ne,spin=1,sym=4
 occ,A1,B1,B2,A2
 closed,A1,B1,B2,A2-1
 print,orbitals=2
         }
 scf(i)=energy
 {rccsd(t),shifts=0.2,shiftp=0.2,thrdis=1.0;diis,1,1,15,1;maxit,100;core}
 ccsd(i)=energy
 enddo
 
 table,z,scf,ccsd
 save
 type,csv
 

 Variables initialized (889), CPU time= 0.01 sec
 Commands  initialized (702), CPU time= 0.00 sec, 572 directives.
 Default parameters read. Elapsed time= 0.18 sec

 Checking input...
 Passed
1


                                         ***  PROGRAM SYSTEM MOLPRO  ***
                                       Copyright, TTI GmbH Stuttgart, 2015
                                    Version 2015.1 linked Dec 29 2018 15:55:43


 **********************************************************************************************************************************
 LABEL *   Calculation for IrO groundstate                                               
  64 bit mpp version                                                                     DATE: 24-Mar-21          TIME: 01:04:48  
 **********************************************************************************************************************************

 SHA1:             19cd028119e0e09f93f0674bd8af7968d9b3eff6
 **********************************************************************************************************************************

 THRESHOLDS:

 ZERO    =  1.00D-12  ONEINT  =  1.00D-12  TWOINT  =  1.00D-15  PREFAC  =  1.00D-14  LOCALI  =  1.00D-09  EORDER  =  1.00D-04
 ENERGY  =  0.00D+00  ETEST   =  0.00D+00  EDENS   =  0.00D+00  THRDEDEF=  1.00D-06  GRADIENT=  1.00D-02  STEP    =  1.00D-03
 ORBITAL =  1.00D-05  CIVEC   =  1.00D-05  COEFF   =  1.00D-04  PRINTCI =  5.00D-02  PUNCHCI =  9.90D+01  OPTGRAD =  3.00D-04
 OPTENERG=  1.00D-06  OPTSTEP =  3.00D-04  THRGRAD =  1.00D-10  COMPRESS=  1.00D-11  VARMIN  =  1.00D-07  VARMAX  =  1.00D-03
 THRDOUB =  0.00D+00  THRDIV  =  1.00D-05  THRRED  =  1.00D-07  THRPSP  =  1.00D+00  THRDC   =  1.00D-10  THRCS   =  1.00D-10
 THRNRM  =  1.00D-08  THREQ   =  0.00D+00  THRDE   =  1.00D+00  THRREF  =  1.00D-05  SPARFAC =  1.00D+00  THRDLP  =  1.00D-07
 THRDIA  =  1.00D-10  THRDLS  =  1.00D-07  THRGPS  =  0.00D+00  THRKEX  =  0.00D+00  THRDIS  =  2.00D-01  THRVAR  =  1.00D-10
 THRLOC  =  1.00D-06  THRGAP  =  1.00D-06  THRLOCT = -1.00D+00  THRGAPT = -1.00D+00  THRORB  =  1.00D-06  THRMLTP =  0.00D+00
 THRCPQCI=  1.00D-10  KEXTA   =  0.00D+00  THRCOARS=  0.00D+00  SYMTOL  =  1.00D-06  GRADTOL =  1.00D-06  THROVL  =  1.00D-08
 THRORTH =  1.00D-08  GRID    =  1.00D-06  GRIDMAX =  1.00D-03  DTMAX   =  0.00D+00  THROCCDE=  1.00D-01  THROCCDE=  1.00D-01



 THRESHOLDS:

 ZERO    =  1.00D-12  ONEINT  =  1.00D-12  TWOINT  =  1.00D-15  PREFAC  =  1.00D-14  LOCALI  =  1.00D-09  EORDER  =  1.00D-04
 ENERGY  =  0.00D+00  ETEST   =  0.00D+00  EDENS   =  0.00D+00  THRDEDEF=  1.00D-06  GRADIENT=  1.00D-02  STEP    =  1.00D-03
 ORBITAL =  1.00D-05  CIVEC   =  1.00D-05  COEFF   =  1.00D-04  PRINTCI =  5.00D-02  PUNCHCI =  9.90D+01  OPTGRAD =  3.00D-04
 OPTENERG=  1.00D-06  OPTSTEP =  3.00D-04  THRGRAD =  1.00D-10  COMPRESS=  1.00D-11  VARMIN  =  1.00D-07  VARMAX  =  1.00D-03
 THRDOUB =  0.00D+00  THRDIV  =  1.00D-05  THRRED  =  1.00D-07  THRPSP  =  1.00D+00  THRDC   =  1.00D-10  THRCS   =  1.00D-10
 THRNRM  =  1.00D-08  THREQ   =  0.00D+00  THRDE   =  1.00D+00  THRREF  =  1.00D-05  SPARFAC =  1.00D+00  THRDLP  =  1.00D-07
 THRDIA  =  1.00D-10  THRDLS  =  1.00D-07  THRGPS  =  0.00D+00  THRKEX  =  0.00D+00  THRDIS  =  2.00D-01  THRVAR  =  1.00D-10
 THRLOC  =  1.00D-06  THRGAP  =  1.00D-06  THRLOCT = -1.00D+00  THRGAPT = -1.00D+00  THRORB  =  1.00D-06  THRMLTP =  0.00D+00
 THRCPQCI=  1.00D-10  KEXTA   =  0.00D+00  THRCOARS=  0.00D+00  SYMTOL  =  1.00D-06  GRADTOL =  1.00D-06  THROVL  =  1.00D-15
 THRORTH =  1.00D-08  GRID    =  1.00D-06  GRIDMAX =  1.00D-03  DTMAX   =  0.00D+00  THROCCDE=  1.00D-01  THROCCDE=  1.00D-01



 Variable memory set to 1024000000 words,  buffer space   230000 words

 SETTING BASIS          =    USERDEF
 SETTING NE             =        23.00000000                                  
 SETTING A1             =         6.00000000                                  
 SETTING B1             =         2.00000000                                  
 SETTING B2             =         3.00000000                                  
 SETTING A2             =         1.00000000                                  

 DO I                   =         1.00000000   
 SETTING Z(1)           =         1.50000000                                  

Geometry recognized as XYZ



 Recomputing integrals since basis changed


 Using spherical harmonics



 PROGRAM * SEWARD (Integral evaluation for generally contracted gaussian basis sets)     Author: Roland Lindh, 1990

 Geometry written to block  1 of record 700


 Point group  C2v 



 ATOMIC COORDINATES

 NR  ATOM    CHARGE       X              Y              Z

   1  IR     17.00    0.000000000    0.000000000    0.000000000
   2  O       6.00    0.000000000    0.000000000    2.834589187

 Bond lengths in Bohr (Angstrom)

 1-2  2.834589187
     ( 1.500000000)

 NUCLEAR CHARGE:                   23
 NUMBER OF PRIMITIVE AOS:         556
 NUMBER OF SYMMETRY AOS:          455
 NUMBER OF CONTRACTIONS:          455   ( 186A1  + 109B1  + 109B2  +  51A2  )
 NUMBER OF CORE ORBITALS:           4   (   2A1  +   1B1  +   1B2  +   0A2  )
 NUMBER OF VALENCE ORBITALS:       10   (   5A1  +   2B1  +   2B2  +   1A2  )


 NUCLEAR REPULSION ENERGY   35.98405034

 EXTRA SYMMETRY OF AOS IN SYMMETRY 1:   1 1 1 1 1 1 1 1 1 1   1 1 1 1 1 1 1 1 1 1   1 1 1 1 1 1 1 1 1 1   1 1 1 1 1 1 1 1 1 1
                                        1 1 1 1 1 1 1 1 1 1   1 1 1 1 1 1 1 1 1 1   1 1 1 1 1 1 1 2 1 2   1 2 1 2 1 2 1 2 1 2
                                        1 2 1 2 1 2 1 2 1 2   1 2 1 2 1 2 1 2 1 2   1 2 1 2 1 2 1 2 1 2   1 2 1 2 1 2 1 2 1 2
                                        1 2 1 2 1 2 1 2 1 2   1 2 1 2 1 2 1 2 1 2   1 2 1 2 1 3 2 1 3 2   1 3 2 1 1 1 1 1 1 1
                                        1 1 1 1 1 1 1 1 1 1   1 1 1 1 1 2 1 2 1 2   1 2 1 2 1 2
 EXTRA SYMMETRY OF AOS IN SYMMETRY 2:   1 1 1 1 1 1 1 1 1 1   1 1 1 1 1 1 1 1 1 1   1 1 1 1 1 1 1 1 1 1   1 1 1 1 1 1 1 1 1 1
                                        1 1 1 1 1 1 1 1 1 1   1 1 1 1 2 1 2 1 2 1   2 1 2 1 2 1 2 1 2 1   2 1 2 1 2 1 2 1 2 1
                                        2 1 2 1 2 1 2 1 2 1   2 1 2 1 1 1 1 1 1 1   1 1 1 1 1 1 2 1 2
 EXTRA SYMMETRY OF AOS IN SYMMETRY 3:   1 1 1 1 1 1 1 1 1 1   1 1 1 1 1 1 1 1 1 1   1 1 1 1 1 1 1 1 1 1   1 1 1 1 1 1 1 1 1 1
                                        1 1 1 1 1 1 1 1 1 1   1 1 1 1 2 1 2 1 2 1   2 1 2 1 2 1 2 1 2 1   2 1 2 1 2 1 2 1 2 1
                                        2 1 2 1 2 1 2 1 2 1   2 1 2 1 1 1 1 1 1 1   1 1 1 1 1 1 2 1 2
 EXTRA SYMMETRY OF AOS IN SYMMETRY 4:   1 1 1 1 1 1 1 1 1 1   1 1 1 1 1 1 1 1 1 1   1 1 1 1 1 1 1 1 1 1   1 1 1 1 1 1 1 1 1 1
                                        2 1 2 1 2 1 1 1 1 1   1

 Eigenvalues of metric

         1 0.666E-07 0.913E-06 0.334E-05 0.942E-05 0.155E-04 0.157E-04 0.247E-04 0.409E-04
         2 0.898E-07 0.370E-05 0.152E-04 0.517E-04 0.539E-04 0.125E-03 0.139E-03 0.432E-03
         3 0.898E-07 0.370E-05 0.152E-04 0.517E-04 0.539E-04 0.125E-03 0.139E-03 0.432E-03
         4 0.155E-04 0.538E-04 0.146E-03 0.607E-03 0.970E-03 0.207E-02 0.546E-02 0.578E-02


 Contracted 2-electron integrals neglected if value below      1.0D-15

 Warning: maximum contribution to expansion of local PP integrals   0.5D+07
 AO integral compression algorithm  1   Integral accuracy      1.0D-15

     4915.986 MB (compressed) written to integral file ( 38.4%)

     Node minimum: 300.941 MB, node maximum: 913.834 MB


 NUMBER OF SORTED TWO-ELECTRON INTEGRALS:  125132898.     BUFFER LENGTH:  32768
 NUMBER OF SEGMENTS:   4  SEGMENT LENGTH:   31982049      RECORD LENGTH: 524288

 Memory used in sort:      32.54 MW

 SORT1 READ  1600176772. AND WROTE    49745475. INTEGRALS IN    144 RECORDS. CPU TIME:    25.34 SEC, REAL TIME:    33.58 SEC
 SORT2 READ   545769641. AND WROTE  1376419418. INTEGRALS IN  12628 RECORDS. CPU TIME:     1.90 SEC, REAL TIME:     4.61 SEC

 Node minimum:   125060912.  Node maximum:   125200036. integrals

 OPERATOR DM      FOR CENTER  0  COORDINATES:    0.000000    0.000000    0.000000


 **********************************************************************************************************************************
 DATASETS  * FILE   NREC   LENGTH (MB)   RECORD NAMES
              1      19       22.49       500      610      700      900      950      970     1000      129      960     1100   
                                          VAR    BASINP    GEOM    SYMINP    ZMAT    AOBASIS   BASIS     P2S    ABASIS      S 
                                         1400     1410     1420     1200     1210     1080     1600     1650     1700   
                                           T        V       ECP      H0       H01     AOSYM     SMH    MOLCAS    OPER   

 PROGRAMS   *        TOTAL       INT
 CPU TIMES  *       208.31    208.05
 REAL TIME  *       221.41 SEC
 DISK USED  *        11.42 GB      
 GA USED    *         0.00 MB       (max)       0.00 MB       (current)
 **********************************************************************************************************************************


 PROGRAM * RHF-SCF (OPEN SHELL)       Authors: W. Meyer, H.-J. Werner


 NUMBER OF ELECTRONS:      12+   11-    SPACE SYMMETRY=4    SPIN SYMMETRY: Doublet 
 CONVERGENCE THRESHOLDS:    1.00E-05 (Density)    1.00E-07 (Energy)
 MAX. NUMBER OF ITERATIONS:       60
 INTERPOLATION TYPE:            DIIS
 INTERPOLATION STEPS:              2 (START)      1 (STEP)
 LEVEL SHIFTS:                 -1.00 (CLOSED) -0.50 (OPEN) 

 Number of closed-shell orbitals:   11 (   6   2   3   0 )
 Number of open-shell orbitals:      1 (   0   0   0   1 )


 Orbital guess generated from atomic densities. Full valence occupancy:    7   3   3   1

 Molecular orbital dump at record        2100.2

 ITERATION    DDIFF          GRAD             ENERGY        2-EL.EN.            DIPOLE MOMENTS         DIIS   ORB.
    1      0.000D+00      0.000D+00      -119.31691653    245.644434    0.00000    0.00000   -1.65482    0    start
    2      0.000D+00      0.460D-02      -119.34075348    244.810964    0.00000    0.00000   -1.17752    1    diag,B
    3      0.327D-02      0.155D-02      -119.34557270    244.739389    0.00000    0.00000   -1.15048    2    diag,B
    4      0.270D-02      0.824D-03      -119.34812825    244.623646    0.00000    0.00000   -1.06977    3    diag,B
    5      0.318D-02      0.506D-03      -119.34983596    244.472223    0.00000    0.00000   -1.01572    4    diag,B
    6      0.326D-02      0.308D-03      -119.35075395    244.330180    0.00000    0.00000   -0.96219    5    diag,B
    7      0.197D-02      0.173D-03      -119.35108735    244.227168    0.00000    0.00000   -0.92168    6    diag,B
    8      0.959D-03      0.934D-04      -119.35118131    244.181671    0.00000    0.00000   -0.89747    7    diag,B
    9      0.708D-03      0.525D-04      -119.35121237    244.157033    0.00000    0.00000   -0.88345    8    diag,B
   10      0.296D-03      0.280D-04      -119.35122097    244.146433    0.00000    0.00000   -0.87744    9    orth
   11      0.256D-03      0.173D-04      -119.35122468    244.140249    0.00000    0.00000   -0.87456   10    diag,B
   12      0.168D-03      0.103D-04      -119.35122620    244.137099    0.00000    0.00000   -0.87286   11    diag,B
   13      0.951D-04      0.539D-05      -119.35122657    244.136101    0.00000    0.00000   -0.87197   12    diag,B
   14      0.549D-04      0.310D-05      -119.35122664    244.135817    0.00000    0.00000   -0.87158   13    diag,B
   15      0.235D-04      0.206D-05      -119.35122668    244.135580    0.00000    0.00000   -0.87120   14    diag,B
   16      0.171D-04      0.133D-05      -119.35122669    244.135471    0.00000    0.00000   -0.87101   15    diag,B
   17      0.687D-05      0.912D-06      -119.35122670    244.135442    0.00000    0.00000   -0.87096    0    orth

 Final alpha occupancy:   6   2   3   1
 Final beta  occupancy:   6   2   3   0

 !RHF STATE 1.4 Energy               -119.351226695737
 Nuclear energy                        35.98405034
 One-electron energy                 -277.40299812
 Two-electron energy                  122.06772108
 Virial quotient                       -2.51834863
 !RHF STATE 1.4 Dipole moment           0.00000000     0.00000000    -0.87096095
 Dipole moment /Debye                   0.00000000     0.00000000    -2.21361694

 ELECTRON ORBITALS
 =================


   Orb  Occ    Energy  Couls-En    Coefficients

                                   1 1s      1 1s      1 1s      1 1s      1 1s      1 1s      1 1s      1 1s      1 1s      1 1s   
                                   1 1s      1 1s      1 1s      1 1s      1 1s      1 1s      1 1s      1 1s      1 1s      1 1s   
                                   1 1s      1 1s      1 1s      1 1s      1 1s      1 1s      1 1s      1 1s      1 1s      1 1s   
                                   1 1s      1 1s      1 1s      1 1s      1 1s      1 2pz     1 2pz     1 2pz     1 2pz     1 2pz  
                                   1 2pz     1 2pz     1 2pz     1 2pz     1 2pz     1 2pz     1 2pz     1 2pz     1 2pz     1 2pz  
                                   1 2pz     1 2pz     1 2pz     1 2pz     1 2pz     1 2pz     1 2pz     1 2pz     1 2pz     1 2pz  
                                   1 2pz     1 2pz     1 2pz     1 2pz     1 2pz     1 2pz     1 3d0     1 3d2+    1 3d0     1 3d2+ 
                                   1 3d0     1 3d2+    1 3d0     1 3d2+    1 3d0     1 3d2+    1 3d0     1 3d2+    1 3d0     1 3d2+ 
                                   1 3d0     1 3d2+    1 3d0     1 3d2+    1 3d0     1 3d2+    1 3d0     1 3d2+    1 3d0     1 3d2+ 
                                   1 3d0     1 3d2+    1 3d0     1 3d2+    1 3d0     1 3d2+    1 3d0     1 3d2+    1 3d0     1 3d2+ 
                                   1 3d0     1 3d2+    1 3d0     1 3d2+    1 3d0     1 3d2+    1 3d0     1 3d2+    1 3d0     1 3d2+ 
                                   1 4f0     1 4f2+    1 4f0     1 4f2+    1 4f0     1 4f2+    1 4f0     1 4f2+    1 4f0     1 4f2+ 
                                   1 4f0     1 4f2+    1 4f0     1 4f2+    1 4f0     1 4f2+    1 4f0     1 4f2+    1 4f0     1 4f2+ 
                                   1 4f0     1 4f2+    1 4f0     1 4f2+    1 4f0     1 4f2+    1 4f0     1 4f2+    1 4f0     1 4f2+ 
                                   1 4f0     1 4f2+    1 4f0     1 4f2+    1 5g0     1 5g4+    1 5g2+    1 5g0     1 5g4+    1 5g2+ 
                                   1 5g0     1 5g4+    1 5g2+    2 1s      2 1s      2 1s      2 1s      2 1s      2 1s      2 1s   
                                   2 1s      2 1s      2 1s      2 1s      2 1s      2 1s      2 2pz     2 2pz     2 2pz     2 2pz  
                                   2 2pz     2 2pz     2 2pz     2 2pz     2 3d0     2 3d2+    2 3d0     2 3d2+    2 3d0     2 3d2+ 
                                   2 3d0     2 3d2+    2 4f0     2 4f2+    2 4f0     2 4f2+ 

   1.1   2    -4.2883  -21.0550 -0.000000  0.000000 -0.000000  0.000000 -0.000000  0.000000 -0.000000  0.000000 -0.000000  0.000000
                                -0.000001  0.000003 -0.000007  0.000017 -0.000043  0.000109 -0.000269  0.000662 -0.001612  0.003881
                                -0.009313  0.022559 -0.051556  0.047394  0.300043 -0.919378  0.289253 -0.371248  0.946935 -0.039977
                                 0.546189  0.020537 -0.019119 -0.002951  0.000387  0.000000 -0.000000  0.000000 -0.000000  0.000000
                                -0.000000  0.000000 -0.000000  0.000000 -0.000000  0.000000 -0.000000  0.000000 -0.000000  0.000001
                                -0.000002  0.000004 -0.000006 -0.000054  0.000581 -0.001674  0.003150 -0.006181  0.010820 -0.276283
                                 0.280315 -0.011125 -0.006745 -0.007590 -0.000547  0.000217  0.000000 -0.000000 -0.000000  0.000000
                                 0.000000 -0.000000 -0.000000  0.000000  0.000000 -0.000000 -0.000002  0.000000  0.000005 -0.000000
                                -0.000012  0.000001  0.000027 -0.000002 -0.000056  0.000005  0.000106 -0.000025 -0.000129  0.000186
                                 0.000849 -0.000627 -0.005433 -0.000647  0.005599  0.000779 -0.001237  0.003201  0.009691  0.000251
                                -0.001867  0.001517 -0.004364 -0.000216 -0.003250 -0.000115 -0.001666  0.000001  0.000225 -0.000002
                                 0.000000 -0.000000 -0.000000  0.000000  0.000000 -0.000000 -0.000001  0.000000  0.000003 -0.000000
                                -0.000011 -0.000003  0.000017 -0.000009 -0.000098 -0.000046  0.000306  0.000137  0.000006 -0.000185
                                -0.002508 -0.000536  0.003516 -0.000691 -0.002531  0.000248 -0.000890  0.000052 -0.000880  0.000093
                                -0.000051 -0.000038  0.000032  0.000015  0.000074  0.000049 -0.000115  0.000524  0.000765 -0.000707
                                -0.000973  0.000373 -0.000442 -0.000000  0.000000 -0.000001  0.000007 -0.000066 -0.000861 -0.002923
                                 0.011661  0.001652  0.014357 -0.000265  0.000895  0.014233 -0.000133 -0.001417 -0.004230 -0.010807
                                -0.006991 -0.000121  0.000034 -0.002764  0.001440  0.000054  0.004093  0.000480  0.000054  0.000002
                                 0.000693  0.000156 -0.000989 -0.000134 -0.000378 -0.000274

   2.1   2    -2.5752  -17.3453  0.000000 -0.000000  0.000000 -0.000000  0.000000 -0.000000  0.000000 -0.000000  0.000000 -0.000000
                                 0.000000 -0.000000  0.000000 -0.000000  0.000000 -0.000000  0.000000 -0.000000  0.000001 -0.000006
                                 0.000025 -0.000107  0.000318  0.000737 -0.011313  0.038791 -0.085903  0.100608 -0.086592  0.089110
                                -0.061591 -0.040733 -0.032631 -0.013517  0.001964  0.000000 -0.000000  0.000000 -0.000000  0.000000
                                -0.000000  0.000000 -0.000000  0.000001 -0.000002  0.000005 -0.000015  0.000041 -0.000103  0.000248
                                -0.000571  0.001237 -0.001998 -0.006608  0.087524 -0.228619 -0.100827 -0.033817  0.396952 -0.829782
                                 1.378764  0.216543 -0.006274 -0.019400 -0.002153  0.000561  0.000000  0.000000 -0.000000 -0.000000
                                 0.000000  0.000000 -0.000000 -0.000000  0.000002  0.000000 -0.000005 -0.000000  0.000016  0.000000
                                -0.000040 -0.000000  0.000091  0.000001 -0.000195 -0.000002  0.000415  0.000011 -0.000989 -0.000106
                                 0.004951  0.000450 -0.016944  0.000070  0.017374 -0.000222 -0.014312 -0.001622  0.028742 -0.000993
                                -0.014436 -0.001211 -0.010673  0.001263 -0.009452  0.001011 -0.003468  0.000058 -0.000103  0.000012
                                 0.000000  0.000000 -0.000000 -0.000000  0.000002  0.000000 -0.000006 -0.000001  0.000018  0.000001
                                -0.000021 -0.000012  0.000163 -0.000003 -0.000133 -0.000087  0.000785 -0.000025  0.000349 -0.000190
                                -0.003860  0.000353  0.014187 -0.001775 -0.006911 -0.000272 -0.002337 -0.001801 -0.003366 -0.000383
                                 0.000846  0.000045 -0.000600 -0.000017  0.000747 -0.000009  0.000091  0.001425 -0.000020  0.000130
                                -0.001816  0.000010  0.000734 -0.000000  0.000001 -0.000007  0.000049 -0.000506 -0.007450 -0.023878
                                 0.076677  0.018573  0.071561  0.000486  0.007155  0.039634 -0.000808 -0.008591 -0.026939 -0.053971
                                -0.037926 -0.000664  0.000209 -0.005952  0.005484  0.000126  0.016826  0.000964  0.000215 -0.000009
                                 0.006230  0.000445 -0.003244 -0.000397 -0.002541 -0.000509

   3.1   2    -1.3382  -12.6152  0.000000 -0.000000  0.000000 -0.000000  0.000000 -0.000000  0.000000 -0.000000  0.000000 -0.000000
                                 0.000000 -0.000000  0.000001 -0.000002  0.000006 -0.000014  0.000036 -0.000088  0.000214 -0.000515
                                 0.001241 -0.003029  0.007036 -0.006886 -0.041016  0.135962 -0.060105  0.071353 -0.167521 -0.065961
                                -0.002459 -0.016572 -0.092253 -0.025586  0.004135 -0.000000  0.000000 -0.000000  0.000000 -0.000000
                                 0.000000 -0.000000  0.000000 -0.000000  0.000000 -0.000001  0.000003 -0.000008  0.000019 -0.000046
                                 0.000108 -0.000237  0.000335  0.002448 -0.027287  0.073682 -0.005447  0.050451 -0.138318 -0.169867
                                 0.012479 -0.078221 -0.063938 -0.044574 -0.002623  0.001162  0.000000 -0.000000 -0.000000  0.000000
                                 0.000000 -0.000000 -0.000000  0.000000  0.000001 -0.000000 -0.000002  0.000000  0.000006 -0.000000
                                -0.000014  0.000001  0.000027 -0.000002 -0.000020  0.000003 -0.000267 -0.000003  0.003381 -0.000028
                                -0.009908  0.000038 -0.022953  0.000637  0.022021 -0.000620  0.043195 -0.000558  0.026479 -0.001936
                                 0.080871  0.001069  0.049972 -0.000151 -0.018682 -0.000081 -0.006772 -0.000292  0.001105  0.000009
                                 0.000000 -0.000000 -0.000000  0.000000  0.000000 -0.000000 -0.000001  0.000001  0.000006 -0.000001
                                 0.000062  0.000011  0.000180  0.000002  0.000456  0.000086 -0.000271 -0.000142  0.003535  0.000384
                                -0.006935 -0.000362  0.023249  0.001433 -0.005624  0.001607  0.007517  0.001937 -0.006072  0.001223
                                 0.000501 -0.000414  0.000405  0.000123  0.001858  0.000039  0.000014  0.004112 -0.000089  0.001341
                                -0.000179 -0.000137  0.000448 -0.000001  0.000006 -0.000047  0.000313 -0.003258 -0.048676 -0.159625
                                 0.550782  0.148766  0.432993 -0.003299  0.047088  0.106000 -0.001129 -0.010966 -0.031708 -0.076572
                                -0.090378 -0.000470  0.000306 -0.020811  0.003941 -0.000510  0.022218  0.000098  0.000150 -0.000131
                                 0.016646 -0.001501 -0.002783 -0.000461 -0.004053 -0.001089

   4.1   2    -0.6662  -11.1548 -0.000000  0.000000 -0.000000  0.000000 -0.000000  0.000000 -0.000000  0.000000 -0.000000  0.000000
                                -0.000000  0.000000 -0.000000  0.000001 -0.000002  0.000004 -0.000010  0.000026 -0.000064  0.000161
                                -0.000410  0.001097 -0.002713  0.000702  0.034648 -0.121389  0.200717 -0.235492  0.249531 -0.176017
                                 0.142855  0.021263  0.100450  0.053393 -0.008878 -0.000000  0.000000 -0.000000  0.000000 -0.000000
                                 0.000000 -0.000000  0.000000 -0.000000  0.000000 -0.000000  0.000001 -0.000003  0.000007 -0.000016
                                 0.000035 -0.000074  0.000234 -0.001983  0.014886 -0.040942  0.040731 -0.064961  0.068604  1.070096
                                -1.019015  0.086443  0.035417  0.058542  0.009997 -0.003388 -0.000000 -0.000000  0.000000  0.000000
                                -0.000000 -0.000000  0.000001  0.000000 -0.000003 -0.000000  0.000010  0.000001 -0.000028 -0.000002
                                 0.000069  0.000005 -0.000147 -0.000014  0.000229  0.000042  0.000215 -0.000187 -0.006940  0.001334
                                 0.019187 -0.004511  0.069121 -0.003092 -0.069626  0.002848 -0.090707  0.018726 -0.103321  0.001463
                                -0.152865  0.028377 -0.166096  0.024279 -0.042472  0.009507  0.013488  0.000536 -0.000701 -0.000014
                                -0.000000  0.000000  0.000001 -0.000000 -0.000004  0.000000  0.000013 -0.000001 -0.000044  0.000002
                                 0.000019 -0.000008 -0.000465  0.000004  0.000099 -0.000066 -0.002067  0.000197 -0.002839 -0.000532
                                 0.015640  0.000859 -0.044896 -0.001719  0.024269  0.000042 -0.016819 -0.001594  0.001477 -0.000775
                                 0.000543 -0.000067  0.001750 -0.000069 -0.002198  0.000197 -0.000369 -0.007105  0.000372 -0.001226
                                 0.001104  0.000670 -0.000564 -0.000000  0.000002 -0.000013  0.000083 -0.000865 -0.013639 -0.043515
                                 0.139207  0.046991  0.139066  0.001976  0.012696 -0.089259  0.007055  0.074349  0.240819  0.393354
                                 0.257308  0.004577 -0.001845  0.029155 -0.012161 -0.000425 -0.039922 -0.001078 -0.000485 -0.000050
                                -0.018374 -0.001002  0.005927  0.001393  0.007358  0.000643

   5.1   2    -0.4863  -11.4724  0.000000 -0.000000  0.000000 -0.000000  0.000000 -0.000000  0.000000 -0.000000  0.000000 -0.000000
                                 0.000000 -0.000000  0.000000 -0.000001  0.000002 -0.000005  0.000013 -0.000032  0.000078 -0.000189
                                 0.000455 -0.001115  0.002604 -0.002554 -0.015559  0.052770 -0.026550  0.030757 -0.073832  0.006226
                                -0.046601  0.057516  0.031723 -0.002476  0.000863  0.000000 -0.000000  0.000000 -0.000000  0.000000
                                -0.000000  0.000000 -0.000000  0.000000 -0.000000  0.000000 -0.000000  0.000001 -0.000002  0.000004
                                -0.000008  0.000018 -0.000055  0.000456 -0.003404  0.009534 -0.014709  0.023548 -0.026217  0.186944
                                -0.204883 -0.003111  0.017502  0.001205 -0.000949  0.000393  0.000000 -0.000000 -0.000000  0.000000
                                 0.000000 -0.000000 -0.000000  0.000001  0.000001 -0.000003 -0.000002  0.000009  0.000006 -0.000026
                                -0.000015  0.000070  0.000034 -0.000183 -0.000081  0.000554  0.000236 -0.002505 -0.001110  0.017948
                                 0.004219 -0.061001 -0.003159 -0.041133  0.003659  0.038767 -0.016639  0.249074  0.013207  0.012100
                                -0.030732  0.391463 -0.010114  0.347210 -0.007798  0.169859 -0.003799  0.026806  0.000252 -0.000817
                                 0.000000  0.000000 -0.000000 -0.000000  0.000000  0.000000 -0.000001 -0.000001  0.000004  0.000002
                                 0.000007 -0.000005  0.000061  0.000018  0.000038 -0.000047  0.000361  0.000407  0.000031 -0.000986
                                -0.000688  0.002277  0.004524 -0.003303 -0.001639  0.003644  0.006597 -0.004770  0.000759 -0.003040
                                -0.000923 -0.000355  0.000018 -0.000075  0.000706  0.001728  0.000309  0.001115  0.002917  0.002812
                                 0.001933  0.004094  0.003046  0.000000 -0.000000  0.000001 -0.000004  0.000046  0.000694  0.002486
                                -0.011196 -0.002952 -0.017434  0.000097 -0.000682  0.002007 -0.000951 -0.010000 -0.032395 -0.051229
                                -0.036624 -0.000594  0.000249 -0.004418  0.000450  0.002425  0.001765  0.008236  0.000014  0.000122
                                 0.000772  0.003586 -0.000197 -0.002092 -0.000327 -0.002164

   6.1   2    -0.3362   -8.7306  0.000000 -0.000000  0.000000 -0.000000  0.000000 -0.000000  0.000000 -0.000000  0.000000 -0.000000
                                 0.000000 -0.000001  0.000002 -0.000006  0.000015 -0.000037  0.000091 -0.000223  0.000543 -0.001310
                                 0.003156 -0.007707  0.017970 -0.018350 -0.100959  0.342034 -0.132152  0.154447 -0.445366  0.006791
                                -0.363149  0.309190  0.592634  0.189353 -0.001736  0.000000 -0.000000  0.000000 -0.000000  0.000000
                                -0.000000  0.000000 -0.000000  0.000000 -0.000000  0.000000 -0.000001  0.000002 -0.000004  0.000010
                                -0.000022  0.000049 -0.000115  0.000420 -0.002134  0.006080 -0.022877  0.032924 -0.027502  0.456609
                                -0.464732  0.013236 -0.025386 -0.042155 -0.007103  0.000614  0.000000  0.000000 -0.000000 -0.000000
                                 0.000000  0.000000 -0.000000 -0.000000  0.000001  0.000000 -0.000003 -0.000001  0.000008  0.000003
                                -0.000022 -0.000009  0.000058  0.000022 -0.000189 -0.000066  0.000921  0.000295 -0.006883 -0.002102
                                 0.023408  0.007210  0.016992  0.004624 -0.015794 -0.004511 -0.097086 -0.029848 -0.003003 -0.001419
                                -0.159265 -0.044037 -0.132328 -0.035341 -0.081177 -0.016405 -0.021845 -0.004489  0.001300 -0.000072
                                 0.000000 -0.000000 -0.000000  0.000000  0.000001 -0.000000 -0.000002  0.000001  0.000008 -0.000002
                                 0.000007  0.000015  0.000108  0.000008  0.000036  0.000120  0.000941 -0.000340 -0.001944  0.000783
                                 0.004106 -0.000605  0.000427  0.002947  0.003791  0.000492  0.009259  0.002545  0.006117  0.002249
                                -0.001315 -0.000077  0.001972  0.000245 -0.000168  0.000375 -0.000896 -0.001302 -0.000029 -0.001140
                                -0.001020 -0.000217 -0.001358  0.000000 -0.000001  0.000005 -0.000033  0.000336  0.005826  0.015943
                                -0.045502 -0.014735 -0.069341 -0.003878 -0.004938 -0.044766 -0.002110 -0.021794 -0.069610 -0.111334
                                -0.099452 -0.001135  0.000558 -0.026034 -0.002642 -0.000274 -0.006701 -0.000097 -0.000129  0.000002
                                 0.000301  0.000353  0.001564 -0.000162  0.000841 -0.001001

   7.1   0     0.0126   -3.6649 -0.000000  0.000000 -0.000000  0.000000 -0.000000  0.000000 -0.000000  0.000000 -0.000000  0.000000
                                -0.000000  0.000000 -0.000000  0.000001 -0.000003  0.000008 -0.000019  0.000046 -0.000112  0.000267
                                -0.000630  0.001482 -0.003361  0.004609  0.007750 -0.023723 -0.082595  0.100847 -0.052842  0.276703
                                -0.196068  0.131716 -0.571965 -1.332951  1.321176 -0.000000  0.000000 -0.000000  0.000000 -0.000000
                                 0.000000 -0.000000  0.000000 -0.000000  0.000001 -0.000002  0.000005 -0.000013  0.000032 -0.000075
                                 0.000169 -0.000369  0.000867 -0.003307  0.017615 -0.049974  0.163370 -0.235411  0.200096 -3.026472
                                 3.109384 -0.075806  0.115036 -0.826266  0.140360 -0.614446  0.000000 -0.000000 -0.000000  0.000000
                                 0.000000 -0.000000 -0.000001  0.000000  0.000004 -0.000000 -0.000013  0.000001  0.000037 -0.000002
                                -0.000092  0.000005  0.000206 -0.000011 -0.000411  0.000029  0.000628 -0.000100  0.000816  0.000579
                                 0.000090 -0.002039 -0.046395 -0.000243  0.047500  0.000172  0.010531  0.008040  0.123038 -0.001933
                                -0.034621  0.012518  0.122487  0.008625  0.021999  0.007389 -0.091463  0.002900  0.239452  0.016037
                                -0.000000 -0.000000  0.000000  0.000000 -0.000002 -0.000000  0.000007  0.000001 -0.000023 -0.000002
                                 0.000039  0.000008 -0.000196 -0.000010  0.000330  0.000049 -0.003124 -0.000342  0.007854  0.000989
                                -0.014483 -0.001127  0.015598  0.001525 -0.022532 -0.001232  0.012554  0.000930 -0.034277 -0.004200
                                -0.026397  0.000919  0.047220 -0.007556 -0.000217  0.000186  0.000285 -0.000714  0.000755 -0.000080
                                 0.000127  0.000817  0.001202 -0.000000  0.000000 -0.000002  0.000011 -0.000097 -0.002624 -0.003248
                                -0.023882  0.000453  0.018570  0.007178  0.001414  1.026509  0.001536  0.015752  0.050114  0.084028
                                 0.118930  0.000763 -0.000408 -0.377776  0.002142  0.000120  0.007785 -0.000643  0.000103  0.000001
                                -0.018648  0.000585 -0.001175  0.000194 -0.001970  0.000839

   8.1   0     0.0312   -2.3442 -0.000000  0.000000 -0.000000  0.000000 -0.000000  0.000000 -0.000000  0.000000 -0.000000  0.000000
                                -0.000000  0.000000 -0.000000  0.000001 -0.000002  0.000005 -0.000012  0.000031 -0.000074  0.000176
                                -0.000411  0.000956 -0.002146  0.003161  0.002789 -0.007549 -0.069210  0.082621 -0.045148  0.125556
                                -0.032205 -0.025443 -1.379874 -3.116864  1.767140 -0.000000  0.000000 -0.000000  0.000000 -0.000000
                                 0.000000 -0.000000  0.000000 -0.000000  0.000001 -0.000002  0.000007 -0.000019  0.000047 -0.000112
                                 0.000254 -0.000556  0.001204 -0.002815  0.007990 -0.023518  0.183833 -0.244827  0.159199 -3.362926
                                 3.378164 -0.114259 -0.151673 -1.354607 -1.075023  1.321900 -0.000000 -0.000000  0.000000  0.000000
                                -0.000000 -0.000000  0.000000  0.000000 -0.000001 -0.000000  0.000005  0.000001 -0.000013 -0.000002
                                 0.000034  0.000006 -0.000080 -0.000013  0.000186  0.000029 -0.000512 -0.000072  0.002257  0.000254
                                -0.008403 -0.001002  0.006317  0.001561 -0.006660 -0.001623  0.029259  0.003443 -0.022474 -0.004891
                                 0.061729  0.006857 -0.024852  0.000204 -0.130525  0.003578 -0.510280 -0.002763 -0.000282  0.019992
                                 0.000000  0.000000 -0.000002 -0.000000  0.000008  0.000000 -0.000029 -0.000001  0.000085  0.000002
                                -0.000232 -0.000005  0.000562  0.000015 -0.001792 -0.000042  0.011176  0.000250 -0.029268 -0.000606
                                 0.047633  0.001034 -0.051083 -0.001123  0.040100  0.000895 -0.055667 -0.000494 -0.024988  0.000466
                                -0.134948 -0.002345  0.023456  0.004636  0.000249  0.000052  0.000108 -0.001121  0.000323  0.000146
                                -0.008528  0.000300  0.000215  0.000000 -0.000000  0.000000 -0.000002  0.000038 -0.000030  0.003095
                                -0.050076 -0.004281  0.330185  0.004039 -0.000583  3.360534 -0.000021  0.000729  0.006054 -0.006304
                                -0.273727  0.000423  0.000019 -0.636131 -0.000606  0.000030  0.020783 -0.000194  0.000086  0.000005
                                 0.030498  0.000512 -0.001160 -0.000014 -0.002613  0.000172

                                   1 2px     1 2px     1 2px     1 2px     1 2px     1 2px     1 2px     1 2px     1 2px     1 2px  
                                   1 2px     1 2px     1 2px     1 2px     1 2px     1 2px     1 2px     1 2px     1 2px     1 2px  
                                   1 2px     1 2px     1 2px     1 2px     1 2px     1 2px     1 2px     1 2px     1 2px     1 2px  
                                   1 2px     1 3d1+    1 3d1+    1 3d1+    1 3d1+    1 3d1+    1 3d1+    1 3d1+    1 3d1+    1 3d1+ 
                                   1 3d1+    1 3d1+    1 3d1+    1 3d1+    1 3d1+    1 3d1+    1 3d1+    1 3d1+    1 3d1+    1 3d1+ 
                                   1 3d1+    1 3d1+    1 3d1+    1 4f1+    1 4f3+    1 4f1+    1 4f3+    1 4f1+    1 4f3+    1 4f1+ 
                                   1 4f3+    1 4f1+    1 4f3+    1 4f1+    1 4f3+    1 4f1+    1 4f3+    1 4f1+    1 4f3+    1 4f1+ 
                                   1 4f3+    1 4f1+    1 4f3+    1 4f1+    1 4f3+    1 4f1+    1 4f3+    1 4f1+    1 4f3+    1 4f1+ 
                                   1 4f3+    1 4f1+    1 4f3+    1 4f1+    1 4f3+    1 4f1+    1 4f3+    1 5g1+    1 5g3+    1 5g1+ 
                                   1 5g3+    1 5g1+    1 5g3+    2 2px     2 2px     2 2px     2 2px     2 2px     2 2px     2 2px  
                                   2 2px     2 3d1+    2 3d1+    2 3d1+    2 3d1+    2 4f1+    2 4f3+    2 4f1+    2 4f3+ 

   1.2   2    -2.5127  -17.0840  0.000000 -0.000000  0.000000 -0.000000  0.000000 -0.000000  0.000000 -0.000000  0.000001 -0.000002
                                 0.000005 -0.000015  0.000040 -0.000102  0.000246 -0.000566  0.001227 -0.001959 -0.007042  0.090922
                                -0.237635 -0.098877 -0.038403  0.402607 -0.145033  0.697331  0.258528  0.027175 -0.002350  0.000596
                                -0.000235  0.000000 -0.000000  0.000000 -0.000000  0.000000 -0.000001  0.000002 -0.000005  0.000012
                                -0.000025  0.000058 -0.000172  0.000697 -0.001499  0.001457 -0.000790 -0.003033  0.002146 -0.003671
                                -0.001967 -0.000835 -0.000013 -0.000000 -0.000000  0.000000  0.000000 -0.000001 -0.000000  0.000002
                                 0.000001 -0.000006  0.000000  0.000008  0.000039 -0.000053  0.000089  0.000110  0.000157 -0.001079
                                -0.000074  0.002297  0.002168 -0.004493  0.001533  0.003877  0.004410 -0.001281  0.002507 -0.003036
                                 0.002580 -0.001292  0.000522 -0.000142 -0.000127 -0.000083  0.000051  0.000085  0.000033  0.000992
                                -0.000503 -0.000758  0.000152  0.000221  0.002220  0.006719  0.012660  0.007544  0.000112 -0.000059
                                 0.001008 -0.001569 -0.005458 -0.000070 -0.002167  0.001325  0.000084  0.001223  0.000113

   2.2   2    -0.6145  -11.1547 -0.000000  0.000000 -0.000000  0.000000 -0.000000  0.000000 -0.000000  0.000000 -0.000000  0.000000
                                -0.000000  0.000001 -0.000002  0.000006 -0.000014  0.000032 -0.000071  0.000090  0.000981 -0.010433
                                 0.028702 -0.009469  0.028492 -0.061303  0.284908 -0.359066 -0.000500 -0.007091  0.003336  0.002863
                                -0.001493 -0.000000  0.000000 -0.000000  0.000000 -0.000000  0.000000 -0.000001  0.000005 -0.000025
                                 0.000142 -0.001013  0.008779 -0.028557 -0.033186  0.030450  0.124262  0.006313  0.219238  0.185532
                                 0.038514  0.008230 -0.000695 -0.000000 -0.000000  0.000001  0.000000 -0.000006 -0.000000  0.000021
                                 0.000000 -0.000055 -0.000001  0.000242 -0.000002 -0.000191 -0.000013  0.001807  0.000001 -0.007988
                                -0.000130  0.023140  0.000066 -0.033490 -0.000571  0.046843  0.000136 -0.006500 -0.000493  0.020324
                                 0.000988 -0.013287  0.000946  0.002609 -0.000008 -0.000127  0.000041  0.001103  0.000569  0.009475
                                 0.001366  0.001370  0.001963  0.006345  0.065555  0.209155  0.346603  0.284932  0.003631 -0.001676
                                 0.016316 -0.011208 -0.044081 -0.000529 -0.042846  0.006269  0.001416  0.010047  0.001826

   3.2   0    -0.0022   -6.9536  0.000000 -0.000000  0.000000 -0.000000  0.000000 -0.000000  0.000000 -0.000000  0.000000 -0.000000
                                 0.000001 -0.000001  0.000004 -0.000010  0.000024 -0.000057  0.000125 -0.000169 -0.001531  0.016722
                                -0.046310  0.020138 -0.054274  0.107958 -0.672804  0.790739  0.025459 -0.092146 -0.210382 -0.117658
                                -0.339084 -0.000000  0.000000 -0.000000  0.000000 -0.000001  0.000005 -0.000014  0.000038 -0.000098
                                 0.000297 -0.001339  0.009545 -0.032284 -0.021895  0.020068  0.131753  0.005779  0.210692  0.196314
                                 0.148294  0.104831  0.072199  0.000000 -0.000000 -0.000000  0.000000  0.000000 -0.000000 -0.000001
                                 0.000000 -0.000000 -0.000001 -0.000033  0.000002 -0.000067 -0.000006 -0.000212  0.000014 -0.000121
                                -0.000084 -0.000472  0.000308 -0.000180 -0.000426 -0.004779  0.000348 -0.001227 -0.000539 -0.014644
                                -0.000259 -0.012800 -0.002780  0.000670 -0.000619 -0.005141 -0.004519 -0.000707  0.000237 -0.000918
                                -0.000360 -0.002254  0.001571 -0.002798 -0.028762 -0.091922 -0.152416 -0.167001 -0.001487  0.000742
                                -0.150132 -0.002501 -0.004879 -0.000120  0.003831  0.001321 -0.000486  0.000791 -0.000951

   4.2   0     0.0324   -3.2927  0.000000 -0.000000  0.000000 -0.000000  0.000000 -0.000000  0.000000 -0.000000  0.000000 -0.000001
                                 0.000004 -0.000010  0.000027 -0.000068  0.000163 -0.000371  0.000813 -0.001702  0.002898 -0.001268
                                 0.005297 -0.231087  0.291303 -0.144133  3.443645 -3.371915  0.121812 -0.130513  0.015176 -1.205261
                                 1.527722 -0.000000  0.000000 -0.000000  0.000001 -0.000003  0.000012 -0.000034  0.000088 -0.000207
                                 0.000497 -0.001497  0.007472 -0.027057  0.009890 -0.011817  0.102703 -0.062242  0.187912  0.092075
                                 0.132281 -0.141000 -0.148315  0.000000  0.000000 -0.000001 -0.000000  0.000004  0.000000 -0.000014
                                -0.000001  0.000040  0.000004 -0.000135 -0.000011  0.000216  0.000027 -0.001009 -0.000085  0.005225
                                 0.000523 -0.014279 -0.001318  0.022882  0.002182 -0.030045 -0.002465  0.021116  0.001931 -0.028081
                                -0.001711  0.020129  0.000923 -0.073504 -0.004807 -0.079696  0.007162 -0.000329  0.000126 -0.001436
                                -0.000090  0.000509  0.000771 -0.001798 -0.019635 -0.066094 -0.102289 -0.152636 -0.001436  0.000461
                                 0.423571 -0.001639  0.000362 -0.000057 -0.007367  0.000036 -0.000363  0.001596 -0.000561

                                   1 2py     1 2py     1 2py     1 2py     1 2py     1 2py     1 2py     1 2py     1 2py     1 2py  
                                   1 2py     1 2py     1 2py     1 2py     1 2py     1 2py     1 2py     1 2py     1 2py     1 2py  
                                   1 2py     1 2py     1 2py     1 2py     1 2py     1 2py     1 2py     1 2py     1 2py     1 2py  
                                   1 2py     1 3d1-    1 3d1-    1 3d1-    1 3d1-    1 3d1-    1 3d1-    1 3d1-    1 3d1-    1 3d1- 
                                   1 3d1-    1 3d1-    1 3d1-    1 3d1-    1 3d1-    1 3d1-    1 3d1-    1 3d1-    1 3d1-    1 3d1- 
                                   1 3d1-    1 3d1-    1 3d1-    1 4f1-    1 4f3-    1 4f1-    1 4f3-    1 4f1-    1 4f3-    1 4f1- 
                                   1 4f3-    1 4f1-    1 4f3-    1 4f1-    1 4f3-    1 4f1-    1 4f3-    1 4f1-    1 4f3-    1 4f1- 
                                   1 4f3-    1 4f1-    1 4f3-    1 4f1-    1 4f3-    1 4f1-    1 4f3-    1 4f1-    1 4f3-    1 4f1- 
                                   1 4f3-    1 4f1-    1 4f3-    1 4f1-    1 4f3-    1 4f1-    1 4f3-    1 5g1-    1 5g3-    1 5g1- 
                                   1 5g3-    1 5g1-    1 5g3-    2 2py     2 2py     2 2py     2 2py     2 2py     2 2py     2 2py  
                                   2 2py     2 3d1-    2 3d1-    2 3d1-    2 3d1-    2 4f1-    2 4f3-    2 4f1-    2 4f3- 

   1.3   2    -2.5013  -17.0774  0.000000 -0.000000  0.000000 -0.000000  0.000000 -0.000000  0.000000 -0.000000  0.000001 -0.000002
                                 0.000005 -0.000015  0.000041 -0.000103  0.000247 -0.000569  0.001233 -0.001974 -0.007003  0.090847
                                -0.237653 -0.100012 -0.035885  0.401180 -0.136003  0.686263  0.260564  0.030609 -0.001433  0.000578
                                -0.000214  0.000000 -0.000000  0.000000 -0.000000  0.000000 -0.000000  0.000001 -0.000003  0.000006
                                -0.000011  0.000006  0.000162 -0.000686 -0.001200  0.001489  0.004163 -0.002456  0.007521 -0.005165
                                -0.002449 -0.000760 -0.000030 -0.000000  0.000000  0.000000 -0.000000 -0.000001  0.000000  0.000002
                                -0.000001 -0.000005  0.000002  0.000048 -0.000006  0.000036  0.000018  0.000277 -0.000072 -0.001014
                                 0.000033  0.004092  0.000084 -0.002679  0.000879  0.008298 -0.001017  0.001261 -0.000385 -0.000234
                                -0.001655 -0.000193 -0.000482 -0.000303  0.000099 -0.000005 -0.000043  0.000034  0.000060 -0.000003
                                -0.000489 -0.001335  0.000164  0.000136  0.001420  0.004367  0.007859  0.003304  0.000096 -0.000036
                                 0.000727 -0.001348 -0.004077 -0.000060 -0.001155  0.001218  0.000054  0.000908  0.000064

   2.3   2    -0.6948  -11.2990 -0.000000  0.000000 -0.000000  0.000000 -0.000000  0.000000 -0.000000  0.000000 -0.000000  0.000000
                                -0.000000  0.000000 -0.000001  0.000003 -0.000007  0.000018 -0.000039  0.000041  0.000704 -0.007087
                                 0.019261 -0.006618  0.019235 -0.038976  0.136556 -0.183033 -0.006038 -0.042671 -0.017152  0.003067
                                -0.001614 -0.000000  0.000000 -0.000000  0.000000 -0.000000  0.000001 -0.000003  0.000009 -0.000034
                                 0.000166 -0.001111  0.009461 -0.031168 -0.033944  0.031818  0.134933  0.008053  0.230008  0.185779
                                 0.035295  0.004995 -0.000143 -0.000000 -0.000000  0.000001  0.000000 -0.000004 -0.000000  0.000016
                                 0.000000 -0.000043 -0.000000  0.000173 -0.000002 -0.000177 -0.000006  0.001317 -0.000003 -0.006188
                                -0.000037  0.017697 -0.000013 -0.026837 -0.000234  0.034569 -0.000121 -0.005485 -0.000223  0.005892
                                 0.000447 -0.018485  0.000477  0.001471 -0.000021 -0.000024  0.000020  0.001531  0.000381  0.009085
                                 0.001127  0.001282  0.001317  0.006751  0.070190  0.225223  0.360875  0.272452  0.003922 -0.001779
                                 0.015260 -0.009330 -0.033701 -0.000421 -0.031118  0.006267  0.001485  0.008375  0.001607

   3.3   2    -0.3583  -10.5506  0.000000 -0.000000  0.000000 -0.000000  0.000000 -0.000000  0.000000 -0.000000  0.000000 -0.000000
                                 0.000000 -0.000001  0.000004 -0.000009  0.000022 -0.000051  0.000113 -0.000163 -0.001180  0.013427
                                -0.037373  0.012972 -0.038968  0.085609 -0.492504  0.588263  0.012935 -0.071684 -0.097685 -0.005946
                                -0.000071 -0.000000  0.000000 -0.000000  0.000001 -0.000003  0.000009 -0.000026  0.000068 -0.000174
                                 0.000509 -0.002188  0.015241 -0.052403 -0.030189  0.028716  0.212645  0.001011  0.336253  0.290235
                                 0.184741  0.029947  0.004609  0.000000  0.000000 -0.000001 -0.000000  0.000003  0.000000 -0.000010
                                -0.000000  0.000027  0.000001 -0.000142 -0.000001  0.000043  0.000012 -0.001034 -0.000015  0.003595
                                -0.000005 -0.010684  0.000052  0.015023  0.000505 -0.027200 -0.000213  0.008324 -0.000024 -0.033083
                                -0.000812 -0.002409 -0.000840 -0.011867 -0.000097  0.003096 -0.000043  0.000092  0.000684  0.000253
                                 0.001124  0.001379  0.001784 -0.005567 -0.057212 -0.182668 -0.297669 -0.296671 -0.002833  0.001478
                                -0.060982 -0.002723  0.000181 -0.000129  0.015927  0.000457 -0.001040 -0.001640 -0.001334

   4.3   0     0.0252   -2.3828  0.000000 -0.000000  0.000000 -0.000000  0.000000 -0.000000  0.000000 -0.000000  0.000000 -0.000001
                                 0.000002 -0.000007  0.000018 -0.000045  0.000107 -0.000242  0.000529 -0.001153  0.002836 -0.008948
                                 0.026075 -0.177035  0.236948 -0.156041  2.811477 -2.815756  0.074541 -0.047768  0.127420 -0.773279
                                 1.377957 -0.000000  0.000000 -0.000000  0.000000 -0.000002  0.000007 -0.000019  0.000048 -0.000112
                                 0.000255 -0.000660  0.002613 -0.010067  0.011844 -0.012547  0.036086 -0.042215  0.072699  0.012001
                                 0.047703 -0.140363 -0.165552  0.000000  0.000000 -0.000001 -0.000000  0.000003  0.000000 -0.000012
                                -0.000001  0.000035  0.000004 -0.000105 -0.000010  0.000207  0.000024 -0.000796 -0.000075  0.004522
                                 0.000490 -0.012095 -0.001306  0.019550  0.001954 -0.024009 -0.002199  0.018092  0.001862 -0.017877
                                -0.000685  0.023159  0.003472 -0.058352 -0.003535 -0.048033  0.010382  0.000019  0.000106 -0.000589
                                 0.000403  0.001258  0.000028 -0.000625 -0.007388 -0.026417 -0.036954 -0.074161 -0.000713  0.000153
                                 0.354187 -0.000591  0.001851 -0.000011 -0.006021 -0.000520 -0.000148  0.000641 -0.000132

   5.3   0     0.0771   -3.3635 -0.000000  0.000000 -0.000000  0.000000 -0.000000  0.000000 -0.000000  0.000000 -0.000001  0.000002
                                -0.000007  0.000019 -0.000051  0.000129 -0.000308  0.000701 -0.001536  0.003245 -0.006080  0.007553
                                -0.024327  0.454076 -0.581596  0.312753 -6.913279  6.812407 -0.234705  0.208640 -0.236210  1.626065
                                -1.032563  0.000000 -0.000000  0.000001 -0.000003  0.000011 -0.000037  0.000108 -0.000274  0.000621
                                -0.001310  0.002636 -0.004684  0.023282 -0.106493  0.109802 -0.059563  0.282302 -0.193951  0.156396
                                -0.173886  0.368296 -0.744953  0.000000 -0.000000 -0.000001  0.000000  0.000004 -0.000000 -0.000016
                                 0.000000  0.000045 -0.000001 -0.000140  0.000000  0.000260 -0.000008 -0.001047  0.000012  0.005737
                                -0.000032 -0.015296 -0.000031  0.024117 -0.000487 -0.030025  0.000354  0.022542 -0.000322 -0.030410
                                 0.002078 -0.030561  0.005092  0.021248  0.001087  0.071760  0.011510 -0.000700  0.000184  0.002023
                                 0.000982 -0.008882 -0.000292 -0.001208 -0.012257 -0.038855 -0.065629  0.001099 -0.000534  0.000323
                                -0.270867 -0.001596 -0.003895 -0.000072 -0.050939 -0.000160 -0.000199  0.004575 -0.000234

                                   1 3d2-    1 3d2-    1 3d2-    1 3d2-    1 3d2-    1 3d2-    1 3d2-    1 3d2-    1 3d2-    1 3d2- 
                                   1 3d2-    1 3d2-    1 3d2-    1 3d2-    1 3d2-    1 3d2-    1 3d2-    1 3d2-    1 3d2-    1 3d2- 
                                   1 3d2-    1 3d2-    1 4f2-    1 4f2-    1 4f2-    1 4f2-    1 4f2-    1 4f2-    1 4f2-    1 4f2- 
                                   1 4f2-    1 4f2-    1 4f2-    1 4f2-    1 4f2-    1 4f2-    1 4f2-    1 4f2-    1 4f2-    1 5g2- 
                                   1 5g4-    1 5g2-    1 5g4-    1 5g2-    1 5g4-    2 3d2-    2 3d2-    2 3d2-    2 3d2-    2 4f2- 
                                   2 4f2- 

   1.4   +    -0.5232  -11.5926 -0.000000  0.000000 -0.000000  0.000001 -0.000003  0.000009 -0.000028  0.000075 -0.000193  0.000580
                                -0.002586  0.018351 -0.062276 -0.040894  0.037577  0.254727  0.011477  0.404158  0.350582  0.160074
                                 0.021680 -0.000674  0.000000 -0.000000  0.000000 -0.000001  0.000003 -0.000007  0.000020 -0.000068
                                 0.000476 -0.001131  0.002515 -0.003808  0.003680 -0.005317 -0.003038 -0.000235 -0.000105 -0.000429
                                 0.001691  0.000825  0.003029  0.001554  0.003976  0.002276  0.007783  0.000113  0.002825 -0.001900
                                -0.001863

   2.4   0     0.0824   -2.6255 -0.000000  0.000000 -0.000001  0.000005 -0.000019  0.000064 -0.000185  0.000468 -0.001067  0.002286
                                -0.004893  0.011562 -0.051614  0.167883 -0.173656  0.152090 -0.465776  0.407382 -0.190048  0.217062
                                -0.487322  1.264812 -0.000000  0.000001 -0.000004  0.000014 -0.000040  0.000104 -0.000271  0.000796
                                -0.005064  0.013020 -0.021439  0.023436 -0.020667  0.014712 -0.022740  0.052124 -0.099328 -0.000000
                                -0.000058  0.000020 -0.000343 -0.000226  0.000208  0.000429 -0.000590  0.000001  0.005619 -0.000088
                                 0.000140

   3.4   0     0.1469   -2.5483 -0.000000  0.000000 -0.000000  0.000001 -0.000002  0.000007 -0.000021  0.000053 -0.000120  0.000258
                                -0.000559  0.001381 -0.006080  0.018586 -0.019259  0.018395 -0.052670  0.048413 -0.020252  0.025289
                                -0.052051  0.092770  0.000002 -0.000015  0.000069 -0.000247  0.000724 -0.001885  0.004889 -0.014471
                                 0.091530 -0.235457  0.385791 -0.421459  0.368010 -0.262988  0.371476 -1.008059  1.633099  0.000003
                                -0.000010  0.000057  0.000018 -0.000477 -0.000061  0.000802  0.002375  0.000027 -0.000857  0.000074
                                -0.001504

 HOMO      6.1    -0.336234 =      -9.1494eV
 LUMO      3.2    -0.002209 =      -0.0601eV
 LUMO-HOMO         0.334026 =       9.0893eV


 **********************************************************************************************************************************
 DATASETS  * FILE   NREC   LENGTH (MB)   RECORD NAMES
              1      19       22.57       500      610      700      900      950      970     1000      129      960     1100   
                                          VAR    BASINP    GEOM    SYMINP    ZMAT    AOBASIS   BASIS     P2S    ABASIS      S 
                                         1400     1410     1420     1200     1210     1080     1600     1650     1700   
                                           T        V       ECP      H0       H01     AOSYM     SMH    MOLCAS    OPER   

              2       4        4.55       700     1000      520     2100   
                                         GEOM     BASIS   MCVARS     RHF  

 PROGRAMS   *        TOTAL       RHF       INT
 CPU TIMES  *       220.76     12.44    208.05
 REAL TIME  *       238.49 SEC
 DISK USED  *        11.99 GB      
 SF USED    *         0.25 MB      
 GA USED    *         0.00 MB       (max)       0.00 MB       (current)
 **********************************************************************************************************************************
 SETTING SCF(1)         =      -119.35122670  AU                              


 PROGRAM * CCSD (Restricted open-shell coupled cluster)     Authors: C. Hampel, H.-J. Werner, 1991, M. Deegan, P.J. Knowles, 1992


 Convergence thresholds:  THRVAR = 1.00D-08  THRDEN = 1.00D-06

 CCSD(T)     terms to be evaluated (factor= 1.000)


 Number of closed-shell orbitals:  11 (   6   2   3   0 )
 Number of active  orbitals:        1 (   0   0   0   1 )
 Number of external orbitals:     443 ( 180 107 106  50 )

 Memory could be reduced to 445.68 Mwords without degradation in triples

 Number of N-1 electron functions:              23
 Number of N-2 electron functions:             253
 Number of singly external CSFs:              3275
 Number of doubly external CSFs:           9817564
 Total number of CSFs:                     9820839

 Molecular orbitals read from record     2100.2  Type=RHF/CANONICAL (state 1.4)

 Integral transformation finished. Total CPU:  16.29 sec, npass=  1  Memory used:  43.25 MW

 Starting RMP2 calculation

 Wavefunction is spin-projected

 ITER.      SQ.NORM     CORR.ENERGY   TOTAL ENERGY   ENERGY CHANGE        DEN1      VAR(S)    VAR(P)  DIIS     TIME
   1      1.24160936    -0.94585111  -120.29707781    -0.94585111    -0.00280851  0.64D-05  0.14D-02  1  1    17.78
   2      1.24502283    -0.94886834  -120.30009504    -0.00301723    -0.00000980  0.36D-07  0.77D-05  2  2    19.66
   3      1.24523319    -0.94897089  -120.30019758    -0.00010255    -0.00000006  0.15D-09  0.54D-07  3  3    21.64
   4      1.24524055    -0.94897232  -120.30019902    -0.00000143    -0.00000000  0.26D-11  0.25D-09  4  4    23.31
   5      1.24524058    -0.94897231  -120.30019901     0.00000001    -0.00000000  0.11D-12  0.14D-11  5  5    25.23

 Norm of t1 vector:      0.02782627      S-energy:    -0.00260204      T1 diagnostic:  0.00004671
 Norm of t2 vector:      0.49443531      P-energy:    -0.94637027
                                         Alpha-Beta:  -0.66763468
                                         Alpha-Alpha: -0.15128033
                                         Beta-Beta:   -0.12745527

 Spin contamination <S**2-Sz**2-Sz>     0.00000000
  Reference energy                   -119.351226695736
  RHF-RMP2 correlation energy          -0.948972311474
 !RHF-RMP2 energy                    -120.300199007210
 (NB above energy spin projected)

 Starting RCCSD calculation

 ITER.      SQ.NORM     CORR.ENERGY   TOTAL ENERGY   ENERGY CHANGE        DEN1      VAR(S)    VAR(P)  DIIS     TIME
   1      1.19393830    -0.85981267  -120.21103937    -0.85981267    -0.03662989  0.10D-01  0.75D-02  1  1    39.01
   2      1.21512828    -0.88813638  -120.23936307    -0.02832371    -0.00326214  0.41D-03  0.13D-02  2  2    51.96
   3      1.22511051    -0.89028549  -120.24151219    -0.00214912    -0.00064232  0.38D-03  0.18D-03  3  3    65.53
   4      1.23233216    -0.89239068  -120.24361738    -0.00210519    -0.00010985  0.43D-04  0.45D-04  4  4    79.80
   5      1.23682568    -0.89328258  -120.24450928    -0.00089190    -0.00001925  0.68D-05  0.11D-04  5  5    92.96
   6      1.23825380    -0.89341032  -120.24463701    -0.00012773    -0.00000537  0.16D-05  0.33D-05  6  6   106.60
   7      1.23897477    -0.89346012  -120.24468682    -0.00004981    -0.00000135  0.44D-06  0.76D-06  7  7   120.57
   8      1.23926090    -0.89348224  -120.24470893    -0.00002211    -0.00000027  0.96D-07  0.13D-06  8  8   134.07
   9      1.23932697    -0.89348350  -120.24471019    -0.00000126    -0.00000006  0.19D-07  0.31D-07  9  9   147.08
  10      1.23933796    -0.89348362  -120.24471032    -0.00000012    -0.00000001  0.38D-08  0.74D-08 10 10   161.46
  11      1.23934165    -0.89348455  -120.24471125    -0.00000093    -0.00000000  0.12D-08  0.29D-08 11 11   176.89

 Norm of t1 vector:      0.14290673      S-energy:    -0.00278426      T1 diagnostic:  0.02027917
                                                                       D1 diagnostic:  0.05436252
 Norm of t2 vector:      0.46788815      P-energy:    -0.89070030
                                         Alpha-Beta:  -0.65735926
                                         Alpha-Alpha: -0.12653584
                                         Beta-Beta:   -0.10680520

 Spin contamination <S**2-Sz**2-Sz>     0.00000000

 Memory could be reduced to 458.42 Mwords without degradation in triples
 

  Correlated core orbitals:             1.1       2.1       1.2       1.3
  Orbital energies:                    -4.3141   -2.5823   -2.5627   -2.5516
 
  RCCSD core-core energy               -0.121786663627
  RCCSD core-valence energy            -0.221219621781
  RCCSD valence correlation energy     -0.550478269408
 

 RESULTS
 =======

  Reference energy                   -119.351226695736
  RCCSD singles energy                 -0.002784257215
  RCCSD pair energy                    -0.890700297601
  RCCSD correlation energy             -0.893484554816
  Triples (T) contribution             -0.047393758986
  Total correlation energy             -0.940878313802
 
  RHF-RCCSD energy                   -120.244711250552
  RHF-RCCSD[T] energy                -120.295866999861
  RHF-RCCSD-T energy                 -120.291607854233
 !RHF-RCCSD(T) energy                -120.292105009538

 Program statistics:

 Available memory in ccsd:              1023998628
 Min. memory needed in ccsd:              28062859
 Max. memory used in ccsd:                40287473
 Max. memory used in cckext:              32692403 (11 integral passes)
 Max. memory used in cckint:              43251562 ( 1 integral passes)



 **********************************************************************************************************************************
 DATASETS  * FILE   NREC   LENGTH (MB)   RECORD NAMES
              1      19       22.57       500      610      700      900      950      970     1000      129      960     1100   
                                          VAR    BASINP    GEOM    SYMINP    ZMAT    AOBASIS   BASIS     P2S    ABASIS      S 
                                         1400     1410     1420     1200     1210     1080     1600     1650     1700   
                                           T        V       ECP      H0       H01     AOSYM     SMH    MOLCAS    OPER   

              2       4        4.55       700     1000      520     2100   
                                         GEOM     BASIS   MCVARS     RHF  

 PROGRAMS   *        TOTAL  RCCSD(T)       RHF       INT
 CPU TIMES  *       670.80    450.01     12.44    208.05
 REAL TIME  *       815.15 SEC
 DISK USED  *        36.68 GB      
 SF USED    *         7.46 GB      
 GA USED    *         0.00 MB       (max)       0.00 MB       (current)
 **********************************************************************************************************************************
 SETTING CCSD(1)        =      -120.29210501  AU                              

 DO I                   =         2.00000000   
 SETTING Z(2)           =         1.60000000                                  

Geometry recognized as XYZ



 Recomputing integrals since geometry changed


 PROGRAM * SEWARD (Integral evaluation for generally contracted gaussian basis sets)     Author: Roland Lindh, 1990

 Geometry written to block  1 of record 700


 Point group  C2v 



 ATOMIC COORDINATES

 NR  ATOM    CHARGE       X              Y              Z

   1  IR     17.00    0.000000000    0.000000000    0.000000000
   2  O       6.00    0.000000000    0.000000000    3.023561799

 Bond lengths in Bohr (Angstrom)

 1-2  3.023561799
     ( 1.600000000)

 NUCLEAR CHARGE:                   23
 NUMBER OF PRIMITIVE AOS:         556
 NUMBER OF SYMMETRY AOS:          455
 NUMBER OF CONTRACTIONS:          455   ( 186A1  + 109B1  + 109B2  +  51A2  )
 NUMBER OF CORE ORBITALS:           4   (   2A1  +   1B1  +   1B2  +   0A2  )
 NUMBER OF VALENCE ORBITALS:       10   (   5A1  +   2B1  +   2B2  +   1A2  )


 NUCLEAR REPULSION ENERGY   33.73504720

 EXTRA SYMMETRY OF AOS IN SYMMETRY 1:   1 1 1 1 1 1 1 1 1 1   1 1 1 1 1 1 1 1 1 1   1 1 1 1 1 1 1 1 1 1   1 1 1 1 1 1 1 1 1 1
                                        1 1 1 1 1 1 1 1 1 1   1 1 1 1 1 1 1 1 1 1   1 1 1 1 1 1 1 2 1 2   1 2 1 2 1 2 1 2 1 2
                                        1 2 1 2 1 2 1 2 1 2   1 2 1 2 1 2 1 2 1 2   1 2 1 2 1 2 1 2 1 2   1 2 1 2 1 2 1 2 1 2
                                        1 2 1 2 1 2 1 2 1 2   1 2 1 2 1 2 1 2 1 2   1 2 1 2 1 3 2 1 3 2   1 3 2 1 1 1 1 1 1 1
                                        1 1 1 1 1 1 1 1 1 1   1 1 1 1 1 2 1 2 1 2   1 2 1 2 1 2
 EXTRA SYMMETRY OF AOS IN SYMMETRY 2:   1 1 1 1 1 1 1 1 1 1   1 1 1 1 1 1 1 1 1 1   1 1 1 1 1 1 1 1 1 1   1 1 1 1 1 1 1 1 1 1
                                        1 1 1 1 1 1 1 1 1 1   1 1 1 1 2 1 2 1 2 1   2 1 2 1 2 1 2 1 2 1   2 1 2 1 2 1 2 1 2 1
                                        2 1 2 1 2 1 2 1 2 1   2 1 2 1 1 1 1 1 1 1   1 1 1 1 1 1 2 1 2
 EXTRA SYMMETRY OF AOS IN SYMMETRY 3:   1 1 1 1 1 1 1 1 1 1   1 1 1 1 1 1 1 1 1 1   1 1 1 1 1 1 1 1 1 1   1 1 1 1 1 1 1 1 1 1
                                        1 1 1 1 1 1 1 1 1 1   1 1 1 1 2 1 2 1 2 1   2 1 2 1 2 1 2 1 2 1   2 1 2 1 2 1 2 1 2 1
                                        2 1 2 1 2 1 2 1 2 1   2 1 2 1 1 1 1 1 1 1   1 1 1 1 1 1 2 1 2
 EXTRA SYMMETRY OF AOS IN SYMMETRY 4:   1 1 1 1 1 1 1 1 1 1   1 1 1 1 1 1 1 1 1 1   1 1 1 1 1 1 1 1 1 1   1 1 1 1 1 1 1 1 1 1
                                        2 1 2 1 2 1 1 1 1 1   1

 Eigenvalues of metric

         1 0.732E-07 0.926E-06 0.345E-05 0.104E-04 0.155E-04 0.160E-04 0.249E-04 0.423E-04
         2 0.907E-07 0.372E-05 0.153E-04 0.523E-04 0.539E-04 0.125E-03 0.141E-03 0.433E-03
         3 0.907E-07 0.372E-05 0.153E-04 0.523E-04 0.539E-04 0.125E-03 0.141E-03 0.433E-03
         4 0.155E-04 0.537E-04 0.146E-03 0.607E-03 0.970E-03 0.208E-02 0.547E-02 0.578E-02


 Contracted 2-electron integrals neglected if value below      1.0D-15

 Warning: maximum contribution to expansion of local PP integrals   0.5D+07
 AO integral compression algorithm  1   Integral accuracy      1.0D-15

     4838.130 MB (compressed) written to integral file ( 37.8%)

     Node minimum: 282.853 MB, node maximum: 913.834 MB


 NUMBER OF SORTED TWO-ELECTRON INTEGRALS:  125132898.     BUFFER LENGTH:  32768
 NUMBER OF SEGMENTS:   4  SEGMENT LENGTH:   31982049      RECORD LENGTH: 524288

 Memory used in sort:      32.54 MW

 SORT1 READ  1600176772. AND WROTE    48944183. INTEGRALS IN    142 RECORDS. CPU TIME:    26.96 SEC, REAL TIME:    36.10 SEC
 SORT2 READ   537107521. AND WROTE  1376419418. INTEGRALS IN  17710 RECORDS. CPU TIME:     2.57 SEC, REAL TIME:     5.21 SEC

 Node minimum:   125060912.  Node maximum:   125200036. integrals

 OPERATOR DM      FOR CENTER  0  COORDINATES:    0.000000    0.000000    0.000000


 **********************************************************************************************************************************
 DATASETS  * FILE   NREC   LENGTH (MB)   RECORD NAMES
              1      19       22.49       500      610      700      900      950      970     1000      129      960     1100   
                                          VAR    BASINP    GEOM    SYMINP    ZMAT    AOBASIS   BASIS     P2S    ABASIS      S 
                                         1400     1410     1420     1200     1210     1080     1600     1650     1700   
                                           T        V       ECP      H0       H01     AOSYM     SMH    MOLCAS    OPER   

              2       4        4.55       700     1000      520     2100   
                                         GEOM     BASIS   MCVARS     RHF  

 PROGRAMS   *        TOTAL       INT  RCCSD(T)       RHF       INT
 CPU TIMES  *       881.56    210.75    450.01     12.44    208.05
 REAL TIME  *      1038.99 SEC
 DISK USED  *        37.75 GB      
 SF USED    *         7.46 GB      
 GA USED    *         0.00 MB       (max)       0.00 MB       (current)
 **********************************************************************************************************************************


 PROGRAM * RHF-SCF (OPEN SHELL)       Authors: W. Meyer, H.-J. Werner


 NUMBER OF ELECTRONS:      12+   11-    SPACE SYMMETRY=4    SPIN SYMMETRY: Doublet 
 CONVERGENCE THRESHOLDS:    1.00E-05 (Density)    1.00E-07 (Energy)
 MAX. NUMBER OF ITERATIONS:       60
 INTERPOLATION TYPE:            DIIS
 INTERPOLATION STEPS:              2 (START)      1 (STEP)
 LEVEL SHIFTS:                 -1.00 (CLOSED) -0.50 (OPEN) 

 Number of closed-shell orbitals:   11 (   6   2   3   0 )
 Number of open-shell orbitals:      1 (   0   0   0   1 )


 Molecular orbitals read from record     2100.2  Type=RHF/CANONICAL (state 1.4)

 Molecular orbital dump at record        2100.2

 ITERATION    DDIFF          GRAD             ENERGY        2-EL.EN.            DIPOLE MOMENTS         DIIS   ORB.
    1      0.000D+00      0.000D+00      -119.37611305    240.246897    0.00000    0.00000   -1.09234    0    start
    2      0.000D+00      0.177D-01      -119.38846553    240.221927    0.00000    0.00000   -1.03208    1    diag,B
    3      0.380D-01      0.870D-03      -119.38982921    240.263486    0.00000    0.00000   -1.07766    2    diag,B
    4      0.453D-02      0.453D-03      -119.39057408    240.343289    0.00000    0.00000   -1.09873    3    diag,B
    5      0.520D-02      0.247D-03      -119.39090622    240.403292    0.00000    0.00000   -1.12907    4    diag,B
    6      0.659D-03      0.158D-03      -119.39112769    240.479490    0.00000    0.00000   -1.15839    5    diag,B
    7      0.194D-02      0.979D-04      -119.39124285    240.545850    0.00000    0.00000   -1.18553    6    diag,B
    8      0.573D-03      0.592D-04      -119.39129108    240.591177    0.00000    0.00000   -1.20241    7    orth
    9      0.112D-02      0.366D-04      -119.39131138    240.617266    0.00000    0.00000   -1.21200    8    diag,B
   10      0.212D-03      0.213D-04      -119.39131816    240.628474    0.00000    0.00000   -1.21673    9    diag,B
   11      0.491D-03      0.127D-04      -119.39132045    240.633347    0.00000    0.00000   -1.21964   10    diag,B
   12      0.150D-03      0.727D-05      -119.39132113    240.634917    0.00000    0.00000   -1.22103   11    diag,B
   13      0.168D-03      0.422D-05      -119.39132134    240.635777    0.00000    0.00000   -1.22194   12    diag,B
   14      0.332D-04      0.226D-05      -119.39132138    240.636014    0.00000    0.00000   -1.22224   13    diag,B
   15      0.266D-04      0.171D-05      -119.39132140    240.636111    0.00000    0.00000   -1.22237   14    diag,B
   16      0.610D-05      0.129D-05      -119.39132140    240.636156    0.00000    0.00000   -1.22241    0    orth

 Final alpha occupancy:   6   2   3   1
 Final beta  occupancy:   6   2   3   0

 !RHF STATE 1.4 Energy               -119.391321403780
 Nuclear energy                        33.73504720
 One-electron energy                 -273.44444669
 Two-electron energy                  120.31807809
 Virial quotient                       -2.53706648
 !RHF STATE 1.4 Dipole moment           0.00000000     0.00000000    -1.22241095
 Dipole moment /Debye                   0.00000000     0.00000000    -3.10685522

 ELECTRON ORBITALS
 =================


   Orb  Occ    Energy  Couls-En    Coefficients

                                   1 1s      1 1s      1 1s      1 1s      1 1s      1 1s      1 1s      1 1s      1 1s      1 1s   
                                   1 1s      1 1s      1 1s      1 1s      1 1s      1 1s      1 1s      1 1s      1 1s      1 1s   
                                   1 1s      1 1s      1 1s      1 1s      1 1s      1 1s      1 1s      1 1s      1 1s      1 1s   
                                   1 1s      1 1s      1 1s      1 1s      1 1s      1 2pz     1 2pz     1 2pz     1 2pz     1 2pz  
                                   1 2pz     1 2pz     1 2pz     1 2pz     1 2pz     1 2pz     1 2pz     1 2pz     1 2pz     1 2pz  
                                   1 2pz     1 2pz     1 2pz     1 2pz     1 2pz     1 2pz     1 2pz     1 2pz     1 2pz     1 2pz  
                                   1 2pz     1 2pz     1 2pz     1 2pz     1 2pz     1 2pz     1 3d0     1 3d2+    1 3d0     1 3d2+ 
                                   1 3d0     1 3d2+    1 3d0     1 3d2+    1 3d0     1 3d2+    1 3d0     1 3d2+    1 3d0     1 3d2+ 
                                   1 3d0     1 3d2+    1 3d0     1 3d2+    1 3d0     1 3d2+    1 3d0     1 3d2+    1 3d0     1 3d2+ 
                                   1 3d0     1 3d2+    1 3d0     1 3d2+    1 3d0     1 3d2+    1 3d0     1 3d2+    1 3d0     1 3d2+ 
                                   1 3d0     1 3d2+    1 3d0     1 3d2+    1 3d0     1 3d2+    1 3d0     1 3d2+    1 3d0     1 3d2+ 
                                   1 4f0     1 4f2+    1 4f0     1 4f2+    1 4f0     1 4f2+    1 4f0     1 4f2+    1 4f0     1 4f2+ 
                                   1 4f0     1 4f2+    1 4f0     1 4f2+    1 4f0     1 4f2+    1 4f0     1 4f2+    1 4f0     1 4f2+ 
                                   1 4f0     1 4f2+    1 4f0     1 4f2+    1 4f0     1 4f2+    1 4f0     1 4f2+    1 4f0     1 4f2+ 
                                   1 4f0     1 4f2+    1 4f0     1 4f2+    1 5g0     1 5g4+    1 5g2+    1 5g0     1 5g4+    1 5g2+ 
                                   1 5g0     1 5g4+    1 5g2+    2 1s      2 1s      2 1s      2 1s      2 1s      2 1s      2 1s   
                                   2 1s      2 1s      2 1s      2 1s      2 1s      2 1s      2 2pz     2 2pz     2 2pz     2 2pz  
                                   2 2pz     2 2pz     2 2pz     2 2pz     2 3d0     2 3d2+    2 3d0     2 3d2+    2 3d0     2 3d2+ 
                                   2 3d0     2 3d2+    2 4f0     2 4f2+    2 4f0     2 4f2+ 

   1.1   2    -4.2758  -20.9040 -0.000000  0.000000 -0.000000  0.000000 -0.000000  0.000000 -0.000000  0.000000 -0.000000  0.000000
                                -0.000001  0.000003 -0.000007  0.000017 -0.000043  0.000108 -0.000269  0.000661 -0.001608  0.003872
                                -0.009293  0.022517 -0.051471  0.047156  0.300989 -0.923007  0.302946 -0.387692  0.961799 -0.066585
                                 0.564734  0.023552 -0.014953 -0.001829  0.000208 -0.000000  0.000000 -0.000000  0.000000 -0.000000
                                 0.000000 -0.000000  0.000000 -0.000000  0.000000 -0.000000  0.000000 -0.000001  0.000003 -0.000007
                                 0.000017 -0.000037  0.000078 -0.000161  0.000359 -0.001264  0.013902 -0.018796  0.014435 -0.285178
                                 0.281220 -0.009262 -0.004274 -0.005639 -0.000483  0.000198  0.000000 -0.000000 -0.000000  0.000000
                                 0.000000 -0.000000 -0.000000  0.000000  0.000000 -0.000000 -0.000001  0.000000  0.000003 -0.000000
                                -0.000007  0.000001  0.000016 -0.000002 -0.000033  0.000005  0.000057 -0.000025 -0.000011  0.000185
                                 0.000216 -0.000626 -0.003012 -0.000639  0.002848  0.000762  0.001836  0.003199  0.001380  0.000456
                                 0.004440  0.001305 -0.003753 -0.000181 -0.002135 -0.000121 -0.001442  0.000005  0.000221 -0.000003
                                -0.000000  0.000000  0.000000 -0.000000 -0.000000  0.000000  0.000001 -0.000000 -0.000005 -0.000000
                                 0.000008 -0.000004 -0.000036 -0.000006  0.000051 -0.000049 -0.000557  0.000165  0.001864 -0.000273
                                -0.004357 -0.000304  0.003746 -0.000817 -0.001762  0.000282 -0.000761  0.000086 -0.000529  0.000080
                                -0.000176 -0.000030  0.000087  0.000011 -0.000048  0.000049 -0.000107  0.000439  0.000763 -0.000758
                                -0.000712  0.000376 -0.000401 -0.000000  0.000000 -0.000000  0.000003 -0.000027 -0.000240 -0.001337
                                 0.007110  0.000852  0.009096 -0.000682  0.000357  0.010126 -0.000099 -0.000938 -0.002557 -0.006959
                                -0.004885 -0.000039  0.000027 -0.002171  0.000829  0.000038  0.002730  0.000381  0.000033  0.000002
                                 0.000580  0.000143 -0.000596 -0.000089 -0.000279 -0.000250

   2.1   2    -2.5417  -17.1602 -0.000000  0.000000 -0.000000  0.000000 -0.000000  0.000000 -0.000000  0.000000 -0.000000  0.000000
                                -0.000000  0.000000 -0.000000  0.000000 -0.000000  0.000001 -0.000002  0.000005 -0.000012  0.000028
                                -0.000060  0.000117 -0.000226  0.000839 -0.004328  0.014584 -0.040903  0.045457 -0.025421  0.012885
                                -0.002306 -0.031917 -0.022553 -0.010712  0.001511  0.000000 -0.000000  0.000000 -0.000000  0.000000
                                -0.000000  0.000000 -0.000000  0.000001 -0.000002  0.000005 -0.000014  0.000038 -0.000095  0.000230
                                -0.000528  0.001144 -0.001790 -0.007223  0.090097 -0.235960 -0.068825 -0.076632  0.423877 -0.903637
                                 1.446693  0.232999  0.000102 -0.014976 -0.001942  0.000486  0.000000  0.000000 -0.000000 -0.000000
                                 0.000000  0.000000 -0.000000 -0.000000  0.000001  0.000000 -0.000003 -0.000000  0.000010  0.000000
                                -0.000025 -0.000000  0.000057  0.000001 -0.000124 -0.000002  0.000272  0.000011 -0.000733 -0.000096
                                 0.003254  0.000413 -0.008427  0.000039  0.008007 -0.000174 -0.006075 -0.001487 -0.000892 -0.000623
                                 0.005343 -0.001480 -0.011750  0.001228 -0.007202  0.000945 -0.002980  0.000054 -0.000118  0.000010
                                -0.000000  0.000000  0.000000 -0.000000 -0.000001  0.000000  0.000002 -0.000001 -0.000006  0.000002
                                 0.000033 -0.000014 -0.000016 -0.000001  0.000292 -0.000101 -0.001906  0.000039  0.005835 -0.000400
                                -0.009574  0.000630  0.014025 -0.002146 -0.003714 -0.000370 -0.003424 -0.001798 -0.002644 -0.000391
                                 0.000545  0.000057 -0.000484 -0.000021  0.000232 -0.000011  0.000088  0.001086 -0.000010  0.000009
                                -0.001456  0.000013  0.000781 -0.000000  0.000001 -0.000005  0.000033 -0.000344 -0.004922 -0.016259
                                 0.054040  0.013086  0.052484 -0.000480  0.004848  0.029395 -0.000621 -0.006326 -0.019041 -0.038995
                                -0.029913 -0.000378  0.000164 -0.004538  0.003596  0.000093  0.012037  0.000814  0.000147 -0.000006
                                 0.005239  0.000476 -0.002306 -0.000292 -0.001764 -0.000477

   3.1   2    -1.3070  -12.1449  0.000000 -0.000000  0.000000 -0.000000  0.000000 -0.000000  0.000000 -0.000000  0.000000 -0.000000
[...]
                                 0.000015  0.000214 -0.000065  0.002655  0.000817  0.001172 -0.001121  0.003215 -0.000483  0.000099
                                -0.001827  0.000316 -0.000534 -0.000255  0.000106  0.000040 -0.000047 -0.000066  0.000058 -0.000554
                                -0.000355 -0.000202  0.000176  0.000029  0.000254  0.000658  0.001396  0.000122  0.000001 -0.000008
                                 0.000118 -0.000200 -0.000912 -0.000011 -0.000045  0.000204  0.000007  0.000316  0.000054

   2.3   2    -0.5440   -9.9429  0.000000 -0.000000  0.000000 -0.000000  0.000000 -0.000000  0.000000 -0.000000  0.000000 -0.000000
                                 0.000000 -0.000000  0.000001 -0.000002  0.000006 -0.000013  0.000028 -0.000075  0.000412 -0.002659
                                 0.007363 -0.016925  0.026129 -0.025623  0.368878 -0.382430  0.003891 -0.011068 -0.005977  0.001543
                                -0.001182 -0.000000  0.000000 -0.000000  0.000000 -0.000001  0.000004 -0.000012  0.000032 -0.000085
                                 0.000270 -0.001290  0.009515 -0.032031 -0.024705  0.023443  0.130804  0.015266  0.199200  0.198463
                                 0.078956  0.014593 -0.000836  0.000000 -0.000000 -0.000000  0.000000  0.000000 -0.000000 -0.000001
                                 0.000000  0.000004 -0.000000 -0.000004 -0.000000  0.000045 -0.000003 -0.000040  0.000001  0.000737
                                -0.000043 -0.002001  0.000068  0.003946 -0.000200 -0.004489  0.000080  0.005163 -0.000366  0.001394
                                 0.000356 -0.010717  0.000561  0.000520  0.000150  0.000954 -0.000007  0.000272  0.000354  0.003687
                                 0.000755  0.005950  0.001389  0.007055  0.073147  0.235143  0.368663  0.277775  0.003936 -0.001863
                                 0.024424 -0.003684 -0.014466 -0.000213 -0.016390  0.001824  0.002016  0.005016  0.002121

   3.3   2    -0.3987  -10.3642  0.000000 -0.000000  0.000000 -0.000000  0.000000 -0.000000  0.000000 -0.000000  0.000000 -0.000000
                                 0.000000 -0.000001  0.000003 -0.000006  0.000016 -0.000036  0.000080 -0.000126 -0.000568  0.007174
                                -0.019895  0.001528 -0.013985  0.042451 -0.212549  0.266328  0.006533 -0.054557 -0.052543  0.000165
                                -0.000015 -0.000000  0.000000 -0.000000  0.000001 -0.000002  0.000008 -0.000023  0.000062 -0.000160
                                 0.000481 -0.002143  0.015232 -0.051935 -0.033716  0.032072  0.210935  0.009623  0.330756  0.294443
                                 0.167632  0.030034  0.002874  0.000000  0.000000 -0.000001 -0.000000  0.000002  0.000000 -0.000009
                                -0.000000  0.000023  0.000000 -0.000105  0.000000  0.000066  0.000004 -0.000748  0.000000  0.003021
                                -0.000058 -0.008871  0.000148  0.012444  0.000056 -0.019380  0.000152  0.005758 -0.000185 -0.026024
                                -0.000313 -0.009116 -0.000180 -0.006041 -0.000065  0.001491  0.000010  0.000372  0.000545  0.000534
                                 0.001239  0.002186  0.001288 -0.005359 -0.055743 -0.180148 -0.280790 -0.241223 -0.003021  0.001413
                                -0.046066 -0.000643 -0.000195 -0.000002  0.010233  0.000601 -0.001541 -0.002335 -0.001234

   4.3   0     0.0223   -2.4945  0.000000 -0.000000  0.000000 -0.000000  0.000000 -0.000000  0.000000 -0.000000  0.000000 -0.000001
                                 0.000003 -0.000008  0.000021 -0.000054  0.000128 -0.000291  0.000636 -0.001393  0.003559 -0.012047
                                 0.034947 -0.217164  0.292570 -0.197935  3.491626 -3.505215  0.092921 -0.067419  0.230865 -0.530497
                                 1.247702  0.000000 -0.000000  0.000000 -0.000000  0.000001 -0.000003  0.000009 -0.000023  0.000052
                                -0.000102  0.000141  0.000375 -0.000585 -0.012179  0.012402  0.006002  0.026802  0.000980  0.030742
                                -0.000673 -0.014363 -0.248586  0.000000  0.000000 -0.000001 -0.000000  0.000003  0.000000 -0.000010
                                -0.000001  0.000028  0.000002 -0.000082 -0.000007  0.000175  0.000014 -0.000619 -0.000050  0.003618
                                 0.000338 -0.009487 -0.000930  0.015158  0.001229 -0.017897 -0.001502  0.013968  0.001228 -0.013759
                                -0.000091  0.012911  0.003286 -0.025163 -0.002304 -0.026770  0.008322  0.000029  0.000057 -0.000082
                                 0.000365  0.000080 -0.000139 -0.000441 -0.005616 -0.021158 -0.026543 -0.050954 -0.000672  0.000102
                                 0.140662 -0.000401 -0.000487 -0.000008 -0.003427 -0.000127 -0.000180  0.000732 -0.000049

   5.3   0     0.0702   -3.3138 -0.000000  0.000000 -0.000000  0.000000 -0.000000  0.000000 -0.000000  0.000000 -0.000001  0.000003
                                -0.000009  0.000024 -0.000065  0.000163 -0.000390  0.000888 -0.001946  0.004111 -0.007726  0.009790
                                -0.031497  0.577321 -0.740147  0.399962 -8.871847  8.748615 -0.306376  0.311296 -0.319553  1.775776
                                -1.243398  0.000000 -0.000000  0.000000 -0.000002  0.000007 -0.000024  0.000069 -0.000175  0.000397
                                -0.000835  0.001661 -0.002769  0.014163 -0.069187  0.071355 -0.035362  0.183522 -0.121851  0.110572
                                -0.078499  0.185559 -0.522616  0.000000 -0.000000 -0.000001  0.000000  0.000003 -0.000000 -0.000012
                                 0.000001  0.000034 -0.000002 -0.000101  0.000003  0.000204 -0.000019 -0.000758  0.000038  0.004281
                                -0.000195 -0.011168  0.000387  0.017353 -0.001295 -0.020616  0.001100  0.014339 -0.001048 -0.014854
                                 0.002620  0.006449  0.004406 -0.029636  0.002463  0.148127  0.007288 -0.000250  0.000096  0.000989
                                 0.000774 -0.002198 -0.000453 -0.000821 -0.008393 -0.026776 -0.043066 -0.033067 -0.000387  0.000219
                                -0.193242 -0.000966 -0.002662 -0.000043 -0.008690  0.000117 -0.000231  0.000008 -0.000072

                                   1 3d2-    1 3d2-    1 3d2-    1 3d2-    1 3d2-    1 3d2-    1 3d2-    1 3d2-    1 3d2-    1 3d2- 
                                   1 3d2-    1 3d2-    1 3d2-    1 3d2-    1 3d2-    1 3d2-    1 3d2-    1 3d2-    1 3d2-    1 3d2- 
                                   1 3d2-    1 3d2-    1 4f2-    1 4f2-    1 4f2-    1 4f2-    1 4f2-    1 4f2-    1 4f2-    1 4f2- 
                                   1 4f2-    1 4f2-    1 4f2-    1 4f2-    1 4f2-    1 4f2-    1 4f2-    1 4f2-    1 4f2-    1 5g2- 
                                   1 5g4-    1 5g2-    1 5g4-    1 5g2-    1 5g4-    2 3d2-    2 3d2-    2 3d2-    2 3d2-    2 4f2- 
                                   2 4f2- 

   1.4   +    -0.4911  -11.1614 -0.000000  0.000000 -0.000000  0.000001 -0.000003  0.000009 -0.000026  0.000070 -0.000183  0.000556
                                -0.002519  0.018044 -0.061013 -0.042302  0.039094  0.249869  0.016406  0.393609  0.353129  0.170490
                                 0.025806 -0.000802  0.000000 -0.000000  0.000001 -0.000004  0.000009 -0.000044  0.000023 -0.000311
                                 0.001265 -0.003736  0.004995 -0.008249  0.002103 -0.011483 -0.007978  0.000138 -0.000547 -0.000859
                                 0.001444 -0.000824  0.002783  0.000675  0.003539  0.000620  0.002807  0.000035  0.001810 -0.000480
                                -0.001099

   2.4   0     0.0801   -2.5954 -0.000000  0.000000 -0.000001  0.000005 -0.000018  0.000062 -0.000180  0.000455 -0.001037  0.002220
                                -0.004747  0.011173 -0.049955  0.163378 -0.168971  0.146947 -0.452937  0.394868 -0.186604  0.208883
                                -0.476041  1.250385 -0.000000  0.000002 -0.000008  0.000030 -0.000087  0.000228 -0.000588  0.001748
                                -0.011033  0.028408 -0.046541  0.050998 -0.044427  0.032224 -0.045299  0.114658 -0.223297  0.000071
                                -0.000055 -0.000045 -0.000313  0.000098  0.000148  0.000362 -0.000409  0.000004  0.005357 -0.000068
                                 0.000549

   3.4   0     0.1477   -2.5590 -0.000000  0.000000 -0.000000  0.000001 -0.000005  0.000016 -0.000045  0.000115 -0.000261  0.000562
                                -0.001220  0.003038 -0.013329  0.040281 -0.041719  0.040285 -0.113436  0.104764 -0.042545  0.056925
                                -0.120858  0.211682  0.000002 -0.000015  0.000068 -0.000243  0.000714 -0.001859  0.004818 -0.014263
                                 0.090171 -0.231912  0.379830 -0.414706  0.361474 -0.257743  0.367259 -0.996309  1.616586  0.000022
                                -0.000007 -0.000131  0.000006  0.000460 -0.000033  0.000731  0.001590  0.000028 -0.000634 -0.000996
                                 0.002923

 HOMO      6.1    -0.354797 =      -9.6545eV
 LUMO      3.2    -0.026388 =      -0.7180eV
 LUMO-HOMO         0.328410 =       8.9365eV


 **********************************************************************************************************************************
 DATASETS  * FILE   NREC   LENGTH (MB)   RECORD NAMES
              1      19       22.57       500      610      700      900      950      970     1000      129      960     1100   
                                          VAR    BASINP    GEOM    SYMINP    ZMAT    AOBASIS   BASIS     P2S    ABASIS      S 
                                         1400     1410     1420     1200     1210     1080     1600     1650     1700   
                                           T        V       ECP      H0       H01     AOSYM     SMH    MOLCAS    OPER   

              2       4        4.55       700     1000      520     2100   
                                         GEOM     BASIS   MCVARS     RHF  

 PROGRAMS   *        TOTAL       RHF       INT  RCCSD(T)       RHF       INT  RCCSD(T)       RHF       INT  RCCSD(T)       RHF
 CPU TIMES  *      2979.13     11.24    212.34    491.94      9.82    212.41    450.99      9.97    219.60    469.41      9.66
 REAL TIME  *      3606.05 SEC
 DISK USED  *        45.52 GB      
 SF USED    *         7.46 GB      
 GA USED    *         0.00 MB       (max)       0.00 MB       (current)
 **********************************************************************************************************************************
 SETTING SCF(5)         =      -119.36555342  AU                              


 PROGRAM * CCSD (Restricted open-shell coupled cluster)     Authors: C. Hampel, H.-J. Werner, 1991, M. Deegan, P.J. Knowles, 1992


 Convergence thresholds:  THRVAR = 1.00D-08  THRDEN = 1.00D-06

 CCSD(T)     terms to be evaluated (factor= 1.000)


 Number of closed-shell orbitals:  11 (   6   2   3   0 )
 Number of active  orbitals:        1 (   0   0   0   1 )
 Number of external orbitals:     443 ( 180 107 106  50 )

 Memory could be reduced to 458.57 Mwords without degradation in triples

 Number of N-1 electron functions:              23
 Number of N-2 electron functions:             253
 Number of singly external CSFs:              3275
 Number of doubly external CSFs:           9817564
 Total number of CSFs:                     9820839

 Molecular orbitals read from record     2100.2  Type=RHF/CANONICAL (state 1.4)

 Integral transformation finished. Total CPU:  15.19 sec, npass=  1  Memory used:  43.25 MW

 Starting RMP2 calculation

 Wavefunction is spin-projected

 ITER.      SQ.NORM     CORR.ENERGY   TOTAL ENERGY   ENERGY CHANGE        DEN1      VAR(S)    VAR(P)  DIIS     TIME
   1      1.29737117    -0.96847568  -120.33402910    -0.96847568    -0.00436864  0.59D-05  0.29D-02  1  1    16.77
   2      1.30470012    -0.97326675  -120.33882016    -0.00479106    -0.00002421  0.21D-07  0.21D-04  2  2    18.21
   3      1.30528116    -0.97350521  -120.33905863    -0.00023847    -0.00000008  0.86D-10  0.63D-07  3  3    19.51
   4      1.30529548    -0.97350824  -120.33906166    -0.00000303    -0.00000000  0.34D-11  0.26D-09  4  4    21.39
   5      1.30529570    -0.97350830  -120.33906172    -0.00000006    -0.00000000  0.16D-12  0.12D-11  5  5    22.81

 Norm of t1 vector:      0.02752152      S-energy:    -0.00255141      T1 diagnostic:  0.00005785
 Norm of t2 vector:      0.55184986      P-energy:    -0.97095689
                                         Alpha-Beta:  -0.69123698
                                         Alpha-Alpha: -0.15145409
                                         Beta-Beta:   -0.12826582

 Spin contamination <S**2-Sz**2-Sz>     0.00000000
  Reference energy                   -119.365553416576
  RHF-RMP2 correlation energy          -0.973508300430
 !RHF-RMP2 energy                    -120.339061717007
 (NB above energy spin projected)

 Starting RCCSD calculation

 ITER.      SQ.NORM     CORR.ENERGY   TOTAL ENERGY   ENERGY CHANGE        DEN1      VAR(S)    VAR(P)  DIIS     TIME
   1      1.22815546    -0.86826084  -120.23381425    -0.86826084    -0.04824668  0.19D-01  0.11D-01  1  1    36.10
   2      1.26436076    -0.90396231  -120.26951573    -0.03570148    -0.00571755  0.12D-02  0.26D-02  2  2    49.00
   3      1.28896154    -0.90742101  -120.27297442    -0.00345869    -0.00172578  0.15D-02  0.37D-03  3  3    62.48
   4      1.31215461    -0.91167196  -120.27722537    -0.00425095    -0.00048687  0.42D-03  0.11D-03  4  4    75.57
   5      1.33465848    -0.91440910  -120.27996252    -0.00273715    -0.00014903  0.16D-03  0.23D-04  5  5    89.86
   6      1.34774188    -0.91513155  -120.28068497    -0.00072245    -0.00006016  0.69D-04  0.10D-04  6  6   103.06
   7      1.35797561    -0.91552902  -120.28108244    -0.00039747    -0.00002202  0.23D-04  0.44D-05  7  7   117.68
   8      1.36504308    -0.91573089  -120.28128431    -0.00020187    -0.00000658  0.54D-05  0.18D-05  8  8   131.11
   9      1.36762001    -0.91577312  -120.28132654    -0.00004223    -0.00000200  0.17D-05  0.55D-06  9  9   144.77
  10      1.36885821    -0.91578379  -120.28133721    -0.00001067    -0.00000055  0.47D-06  0.15D-06 10 10   158.65
  11      1.36917415    -0.91579020  -120.28134362    -0.00000641    -0.00000018  0.13D-06  0.56D-07 11 11   179.68
  12      1.36941693    -0.91579225  -120.28134567    -0.00000205    -0.00000006  0.49D-07  0.15D-07 12 12   195.87
  13      1.36947490    -0.91578955  -120.28134297     0.00000270    -0.00000002  0.18D-07  0.48D-08 13 13   210.18
  14      1.36948999    -0.91578993  -120.28134335    -0.00000038    -0.00000001  0.70D-08  0.21D-08 14 14   225.69

 Norm of t1 vector:      0.29706268      S-energy:    -0.00285683      T1 diagnostic:  0.04314157
                                                                       D1 diagnostic:  0.18422752
 Norm of t2 vector:      0.53032419      P-energy:    -0.91293310
                                         Alpha-Beta:  -0.68374089
                                         Alpha-Alpha: -0.12393608
                                         Beta-Beta:   -0.10525613

 Singles amplitudes (print threshold =  0.500E-01):

         I         SYM. A    A   T(IA) [Alpha-Alpha]

         4         1         1     -0.06851017
         6         1         1      0.11329902
         6         1         2      0.05041880
 
         I         SYM. A    A   T(IA) [Beta-Beta]

         4         1         1     -0.05693369
         6         1         1      0.13353068
         6         1         2      0.05651585

 Doubles amplitudes (print threshold =  0.500E-01):

         I         J         SYM. A    SYM. B    A         B      T(IJ, AB) [Alpha-Beta]

         8         8         2         2         1         1     -0.16743044
         8         8         2         2         1         2     -0.05338356
         8         8         2         2         2         1     -0.05338356

 Spin contamination <S**2-Sz**2-Sz>     0.00000000

 Memory could be reduced to 458.42 Mwords without degradation in triples
 

  Correlated core orbitals:             1.1       2.1       1.2       1.3
  Orbital energies:                    -4.2577   -2.4850   -2.5183   -2.5086
 
  RCCSD core-core energy               -0.124894246584
  RCCSD core-valence energy            -0.216766142378
  RCCSD valence correlation energy     -0.574129545826
 

 RESULTS
 =======

  Reference energy                   -119.365553416576
  RCCSD singles energy                 -0.002856831268
  RCCSD pair energy                    -0.912933103519
  RCCSD correlation energy             -0.915789934787
  Triples (T) contribution             -0.059348822642
  Total correlation energy             -0.975138757429
 
  RHF-RCCSD energy                   -120.281343351364
  RHF-RCCSD[T] energy                -120.349709342243
  RHF-RCCSD-T energy                 -120.339788386450
 !RHF-RCCSD(T) energy                -120.340692174006

 Program statistics:

 Available memory in ccsd:              1023998628
 Min. memory needed in ccsd:              28062859
 Max. memory used in ccsd:                40287473
 Max. memory used in cckext:              32692403 (14 integral passes)
 Max. memory used in cckint:              43251562 ( 1 integral passes)



 **********************************************************************************************************************************
 DATASETS  * FILE   NREC   LENGTH (MB)   RECORD NAMES
              1      19       22.57       500      610      700      900      950      970     1000      129      960     1100   
                                          VAR    BASINP    GEOM    SYMINP    ZMAT    AOBASIS   BASIS     P2S    ABASIS      S 
                                         1400     1410     1420     1200     1210     1080     1600     1650     1700   
                                           T        V       ECP      H0       H01     AOSYM     SMH    MOLCAS    OPER   

              2       4        4.55       700     1000      520     2100   
                                         GEOM     BASIS   MCVARS     RHF  

 PROGRAMS   *        TOTAL  RCCSD(T)       RHF       INT  RCCSD(T)       RHF       INT  RCCSD(T)       RHF       INT  RCCSD(T)
 CPU TIMES  *      3478.37    499.15     11.24    212.34    491.94      9.82    212.41    450.99      9.97    219.60    469.41
 REAL TIME  *      4303.18 SEC
 DISK USED  *        45.52 GB      
 SF USED    *         7.46 GB      
 GA USED    *         0.00 MB       (max)       0.00 MB       (current)
 **********************************************************************************************************************************
 SETTING CCSD(5)        =      -120.34069217  AU                              
 Output type csv         
                                                                                                                                                                                                                                                                

     Z,SCF,CCSD
   1.5,   -119.3512267,   -120.2921050
   1.6,   -119.3913214,   -120.3402660
   1.7,   -119.3985531,   -120.3560635
   1.8,   -119.3869347,   -120.3532540
   1.9,   -119.3655534,   -120.3406922
                                                  

 RCCSD(T)/USERDEF energy=   -120.340692174006

        RCCSD(T)        RHF-SCF         RCCSD(T)        RHF-SCF         RCCSD(T)        RHF-SCF         RCCSD(T)        RHF-SCF 
   -120.34069217   -119.36555342   -120.35325399   -119.38693467   -120.35606354   -119.39855309   -120.34026603   -119.39132140
 **********************************************************************************************************************************
 Molpro calculation terminated
 Variable memory released
