
 Primary working directories    : /global/cscratch1/sd/haihan
 Secondary working directories  : /global/cscratch1/sd/haihan
 Wavefunction directory         : /global/homes/h/haihan/wfu/
 Main file repository           : /global/cscratch1/sd/haihan/

 SHA1      : 19cd028119e0e09f93f0674bd8af7968d9b3eff6
 NAME      : 2015.1.36
 ARCHNAME  : linux/x86_64
 FC        : /opt/cray/pe/craype/2.5.14/bin/ftn
 BLASLIB   : -L/opt/intel/compilers_and_libraries_2018.1.163/linux/mkl/lib/intel64 -Wl,-_start-group -lmkl_intel_ilp64 -lmkl_intel_thread -lmkl_core -Wl,-_end-group -liomp5
 id        : lbl

 Nodes     nprocs
 nid00783    15
 Number of processes for MPI-2 version of Molpro:   nprocs(total)=   16   nprocs(compute)=   15   nprocs(helper)=    1

 Using customized tuning parameters: mindgm=7; mindgv=16; mindgc=1; mindgr=1; noblas=0; minvec=7
 default implementation of scratch files=sf  

 ***,Ir
 memory,512,m
 
 gthresh,twoint=1.e-12
 gprint,basis,orbitals
 
 angstrom
 geometry={
 1                                                                               ! Number of atoms
 Ir 0.0 0.0 0.0
 }
 
 basis={
 Including file /global/u2/h/haihan/Research/HZECP/Ir_basis/check_contractions_QZ/ecp.molpro
 Including file /global/u2/h/haihan/Research/HZECP/Ir_basis/check_contractions_QZ/basis.molpro
 }
 
 {rhf
  start,atden
  wf,17,1,3
  occ,4,1,1,1,1,1,1,0
  closed,4,1,1,0,1,0,0,0
  sym,1,1,1,3,2
  orbital,4202.2
 }
 pop
 {multi
  start,4202.2
  maxit,40
  occ,4,1,1,1,1,1,1,0
  frozen,2,1,1,0,1,0,0
  wf,17,1,3;state,1
  wf,17,4,3;state,3
  wf,17,6,3;state,3
  wf,17,7,3;state,3
  orbital,4203.2
 }
 {multi
  start,4203.2
  maxit,40
  occ,4,1,1,1,1,1,1,0
  closed,2,1,1,0,1,0,0
  wf,17,1,3;state,1
  wf,17,4,3;state,3
  wf,17,6,3;state,3
  wf,17,7,3;state,3
  natorb,ci,print
  orbital,5202.2
 }
 {rhf,nitord=1,maxit=0
  start,5202.2
  wf,17,1,3
  occ,4,1,1,1,1,1,1,0
  closed,4,1,1,0,1,0,0,0
  print,orbitals=2
 }
 
 {ci;maxit,100;core,1,1,1,0,1,0,0,0
  natorb,ci,print=15
 }

 Variables initialized (889), CPU time= 0.01 sec
 Commands  initialized (702), CPU time= 0.01 sec, 572 directives.
 Default parameters read. Elapsed time= 0.15 sec

 Checking input...
 Passed
1


                                         ***  PROGRAM SYSTEM MOLPRO  ***
                                       Copyright, TTI GmbH Stuttgart, 2015
                                    Version 2015.1 linked Dec 29 2018 15:55:43


 **********************************************************************************************************************************
 LABEL *   Ir                                                                            
  64 bit mpp version                                                                     DATE: 24-Dec-21          TIME: 07:42:00  
 **********************************************************************************************************************************

 SHA1:             19cd028119e0e09f93f0674bd8af7968d9b3eff6
 **********************************************************************************************************************************

 THRESHOLDS:

 ZERO    =  1.00D-12  ONEINT  =  1.00D-12  TWOINT  =  1.00D-12  PREFAC  =  1.00D-14  LOCALI  =  1.00D-09  EORDER  =  1.00D-04
 ENERGY  =  0.00D+00  ETEST   =  0.00D+00  EDENS   =  0.00D+00  THRDEDEF=  1.00D-06  GRADIENT=  1.00D-02  STEP    =  1.00D-03
 ORBITAL =  1.00D-05  CIVEC   =  1.00D-05  COEFF   =  1.00D-04  PRINTCI =  5.00D-02  PUNCHCI =  9.90D+01  OPTGRAD =  3.00D-04
 OPTENERG=  1.00D-06  OPTSTEP =  3.00D-04  THRGRAD =  1.00D-10  COMPRESS=  1.00D-11  VARMIN  =  1.00D-07  VARMAX  =  1.00D-03
 THRDOUB =  0.00D+00  THRDIV  =  1.00D-05  THRRED  =  1.00D-07  THRPSP  =  1.00D+00  THRDC   =  1.00D-10  THRCS   =  1.00D-10
 THRNRM  =  1.00D-08  THREQ   =  0.00D+00  THRDE   =  1.00D+00  THRREF  =  1.00D-05  SPARFAC =  1.00D+00  THRDLP  =  1.00D-07
 THRDIA  =  1.00D-10  THRDLS  =  1.00D-07  THRGPS  =  0.00D+00  THRKEX  =  0.00D+00  THRDIS  =  2.00D-01  THRVAR  =  1.00D-10
 THRLOC  =  1.00D-06  THRGAP  =  1.00D-06  THRLOCT = -1.00D+00  THRGAPT = -1.00D+00  THRORB  =  1.00D-06  THRMLTP =  0.00D+00
 THRCPQCI=  1.00D-10  KEXTA   =  0.00D+00  THRCOARS=  0.00D+00  SYMTOL  =  1.00D-06  GRADTOL =  1.00D-06  THROVL  =  1.00D-08
 THRORTH =  1.00D-08  GRID    =  1.00D-06  GRIDMAX =  1.00D-03  DTMAX   =  0.00D+00  THROCCDE=  1.00D-01  THROCCDE=  1.00D-01



 ZUNIT=ANG
 

Geometry recognized as XYZ


 Variable memory set to  512000000 words,  buffer space   230000 words

 SETTING BASIS          =    USERDEF


 Recomputing integrals since basis changed


 Using spherical harmonics



 PROGRAM * SEWARD (Integral evaluation for generally contracted gaussian basis sets)     Author: Roland Lindh, 1990

 Geometry written to block  1 of record 700

 Orientation using atomic masses  
 Molecule type: Atom
 Symmetry elements: X,Y,Z
 Rotational constants:       0.0000000      0.0000000      0.0000000 GHz  (calculated with average atomic masses)

 Point group  D2h 



 ATOMIC COORDINATES

 NR  ATOM    CHARGE       X              Y              Z

   1  IR     17.00    0.000000000    0.000000000    0.000000000


          IR  CORE POTENTIAL

          g POTENTIAL

 POWERS             1              3              2              2
 EXPONENTIALS   12.17107       12.17014       5.602984       12.32034    
 COEFFICIENTS   17.00000       206.9082      -23.15704      -143.2084    

          s - g POTENTIAL

 POWERS             2              2
 EXPONENTIALS   6.284095       13.82629    
 COEFFICIENTS   76.59951       438.8739    

          p - g POTENTIAL

 POWERS             2              2
 EXPONENTIALS   5.346383       11.26419    
 COEFFICIENTS   61.99194       262.7501    

          d - g POTENTIAL

 POWERS             2              2
 EXPONENTIALS   4.766746       6.815210    
 COEFFICIENTS   31.12365       123.9560    

          f - g POTENTIAL

 POWERS             2              2
 EXPONENTIALS   2.786350       2.592946    
 COEFFICIENTS   10.32928       11.88570    


 BASIS DATA

   Nr Sym  Nuc  Type         Exponents   Contraction coefficients

    1.1 Ag    1  1s          81.883746    -0.000456    0.000109   -0.000038   -0.000756   -0.003820
    2.1 Ag                   43.142946     0.007251   -0.002172    0.002972   -0.000013    0.015926
    3.1 Ag                   22.731175    -0.076134    0.025226   -0.041889    0.049100    0.005889
    4.1 Ag                   11.976612     0.392307   -0.137486    0.239038   -0.332761   -0.251139
    5.1 Ag                    6.310243    -0.599162    0.226746   -0.395296    0.539193    0.184992
                              3.324744    -0.476593    0.170008   -0.372238    0.945657    2.957254
                              1.751742     0.610563   -0.264851    0.603962   -2.114954   -8.035766
                              0.922959     0.693017   -0.402410    1.150634   -1.624113    6.505590
                              0.486289     0.225546   -0.187447   -0.303613    4.484057    2.204108
                              0.256216     0.005951    0.125771   -1.551674   -0.833538   -7.965627
                              0.134995     0.006730    0.448621   -0.332414   -2.217561    4.807799
                              0.071126    -0.002486    0.434740    0.662273    0.031899    0.979514
                              0.037475     0.000625    0.243405    0.641326    1.202180   -1.704016
    6.1 Ag    1  3d0         69.582346     0.000025
                             36.601738    -0.000064
                             19.253263    -0.000576
                             10.127610     0.015407
                              5.327330    -0.090881
                              2.802285     0.051156
                              1.474059     0.271027
                              0.775385     0.351688
                              0.407869     0.302463
                              0.214547     0.179813
                              0.112856     0.070886
                              0.059365     0.010937
                              0.031227     0.000567
    7.1 Ag    1  3d2+        69.582346     0.000025
                             36.601738    -0.000064
                             19.253263    -0.000576
                             10.127610     0.015407
                              5.327330    -0.090881
                              2.802285     0.051156
                              1.474059     0.271027
                              0.775385     0.351688
                              0.407869     0.302463
                              0.214547     0.179813
                              0.112856     0.070886
                              0.059365     0.010937
                              0.031227     0.000567
    8.1 Ag    1  3d0         69.582346    -0.000072
                             36.601738     0.000277
                             19.253263     0.000052
                             10.127610    -0.017626
                              5.327330     0.115701
                              2.802285    -0.072020
                              1.474059    -0.456700
                              0.775385    -0.416372
                              0.407869     0.235209
                              0.214547     0.527234
                              0.112856     0.277586
                              0.059365     0.049772
                              0.031227     0.001660
    9.1 Ag    1  3d2+        69.582346    -0.000072
                             36.601738     0.000277
                             19.253263     0.000052
                             10.127610    -0.017626
                              5.327330     0.115701
                              2.802285    -0.072020
                              1.474059    -0.456700
                              0.775385    -0.416372
                              0.407869     0.235209
                              0.214547     0.527234
                              0.112856     0.277586
                              0.059365     0.049772
                              0.031227     0.001660
   10.1 Ag    1  3d0         69.582346    -0.000104
                             36.601738     0.000414
                             19.253263    -0.000097
                             10.127610    -0.024748
                              5.327330     0.175276
                              2.802285    -0.137390
                              1.474059    -0.970951
                              0.775385     0.304447
                              0.407869     1.178125
                              0.214547    -0.387716
                              0.112856    -0.551097
                              0.059365    -0.152582
                              0.031227    -0.003177
   11.1 Ag    1  3d2+        69.582346    -0.000104
                             36.601738     0.000414
                             19.253263    -0.000097
                             10.127610    -0.024748
                              5.327330     0.175276
                              2.802285    -0.137390
                              1.474059    -0.970951
                              0.775385     0.304447
                              0.407869     1.178125
                              0.214547    -0.387716
                              0.112856    -0.551097
                              0.059365    -0.152582
                              0.031227    -0.003177
   12.1 Ag    1  3d0         69.582346     0.001660
                             36.601738    -0.007501
                             19.253263     0.023466
                             10.127610    -0.099653
                              5.327330     0.449329
                              2.802285    -0.699925
                              1.474059    -1.281520
                              0.775385     2.836972
                              0.407869    -1.450206
                              0.214547    -0.794421
                              0.112856     0.849320
                              0.059365     0.197209
                              0.031227     0.027497
   13.1 Ag    1  3d2+        69.582346     0.001660
                             36.601738    -0.007501
                             19.253263     0.023466
                             10.127610    -0.099653
                              5.327330     0.449329
                              2.802285    -0.699925
                              1.474059    -1.281520
                              0.775385     2.836972
                              0.407869    -1.450206
                              0.214547    -0.794421
                              0.112856     0.849320
                              0.059365     0.197209
                              0.031227     0.027497
    1.2 B3u   1  2px         80.754753     0.000049   -0.000042   -0.000262   -0.000919    0.005003
    2.2 B3u                  42.532608     0.000099    0.000069    0.001072    0.004133   -0.024522
    3.2 B3u                  22.401440    -0.007030    0.002710    0.001640   -0.004852    0.084013
    4.2 B3u                  11.798583     0.078305   -0.034573   -0.052183   -0.062416   -0.323011
    5.2 B3u                   6.214179    -0.246821    0.116184    0.184751    0.233816    0.910711
                              3.272938    -0.082812    0.029428    0.120530    0.504950   -0.216282
                              1.723819     0.447701   -0.224637   -0.585460   -2.361455   -4.134169
                              0.907916     0.490763   -0.332112   -0.820919    1.046508    7.917912
                              0.478189     0.232088   -0.112114    1.053718    2.478962   -6.766593
                              0.251857     0.035712    0.425856    0.983090   -2.753523    2.059146
                              0.132650     0.008228    0.545958   -0.660728    0.089947    1.384287
                              0.069865    -0.000973    0.215607   -0.554789    0.766243   -1.115396
                              0.036797     0.000521    0.018735   -0.065086    0.156345   -0.156129
    1.3 B2u   1  2py         80.754753     0.000049   -0.000042   -0.000262   -0.000919    0.005003
    2.3 B2u                  42.532608     0.000099    0.000069    0.001072    0.004133   -0.024522
    3.3 B2u                  22.401440    -0.007030    0.002710    0.001640   -0.004852    0.084013
    4.3 B2u                  11.798583     0.078305   -0.034573   -0.052183   -0.062416   -0.323011
    5.3 B2u                   6.214179    -0.246821    0.116184    0.184751    0.233816    0.910711
                              3.272938    -0.082812    0.029428    0.120530    0.504950   -0.216282
                              1.723819     0.447701   -0.224637   -0.585460   -2.361455   -4.134169
                              0.907916     0.490763   -0.332112   -0.820919    1.046508    7.917912
                              0.478189     0.232088   -0.112114    1.053718    2.478962   -6.766593
                              0.251857     0.035712    0.425856    0.983090   -2.753523    2.059146
                              0.132650     0.008228    0.545958   -0.660728    0.089947    1.384287
                              0.069865    -0.000973    0.215607   -0.554789    0.766243   -1.115396
                              0.036797     0.000521    0.018735   -0.065086    0.156345   -0.156129
    1.4 B1g   1  3d2-        69.582346     0.000025   -0.000072   -0.000104    0.001660
    2.4 B1g                  36.601738    -0.000064    0.000277    0.000414   -0.007501
    3.4 B1g                  19.253263    -0.000576    0.000052   -0.000097    0.023466
    4.4 B1g                  10.127610     0.015407   -0.017626   -0.024748   -0.099653
                              5.327330    -0.090881    0.115701    0.175276    0.449329
                              2.802285     0.051156   -0.072020   -0.137390   -0.699925
                              1.474059     0.271027   -0.456700   -0.970951   -1.281520
                              0.775385     0.351688   -0.416372    0.304447    2.836972
                              0.407869     0.302463    0.235209    1.178125   -1.450206
                              0.214547     0.179813    0.527234   -0.387716   -0.794421
                              0.112856     0.070886    0.277586   -0.551097    0.849320
                              0.059365     0.010937    0.049772   -0.152582    0.197209
                              0.031227     0.000567    0.001660   -0.003177    0.027497
    1.5 B1u   1  2pz         80.754753     0.000049   -0.000042   -0.000262   -0.000919    0.005003
    2.5 B1u                  42.532608     0.000099    0.000069    0.001072    0.004133   -0.024522
    3.5 B1u                  22.401440    -0.007030    0.002710    0.001640   -0.004852    0.084013
    4.5 B1u                  11.798583     0.078305   -0.034573   -0.052183   -0.062416   -0.323011
    5.5 B1u                   6.214179    -0.246821    0.116184    0.184751    0.233816    0.910711
                              3.272938    -0.082812    0.029428    0.120530    0.504950   -0.216282
                              1.723819     0.447701   -0.224637   -0.585460   -2.361455   -4.134169
                              0.907916     0.490763   -0.332112   -0.820919    1.046508    7.917912
                              0.478189     0.232088   -0.112114    1.053718    2.478962   -6.766593
                              0.251857     0.035712    0.425856    0.983090   -2.753523    2.059146
                              0.132650     0.008228    0.545958   -0.660728    0.089947    1.384287
                              0.069865    -0.000973    0.215607   -0.554789    0.766243   -1.115396
                              0.036797     0.000521    0.018735   -0.065086    0.156345   -0.156129
    1.6 B2g   1  3d1+        69.582346     0.000025   -0.000072   -0.000104    0.001660
    2.6 B2g                  36.601738    -0.000064    0.000277    0.000414   -0.007501
    3.6 B2g                  19.253263    -0.000576    0.000052   -0.000097    0.023466
    4.6 B2g                  10.127610     0.015407   -0.017626   -0.024748   -0.099653
                              5.327330    -0.090881    0.115701    0.175276    0.449329
                              2.802285     0.051156   -0.072020   -0.137390   -0.699925
                              1.474059     0.271027   -0.456700   -0.970951   -1.281520
                              0.775385     0.351688   -0.416372    0.304447    2.836972
                              0.407869     0.302463    0.235209    1.178125   -1.450206
                              0.214547     0.179813    0.527234   -0.387716   -0.794421
                              0.112856     0.070886    0.277586   -0.551097    0.849320
                              0.059365     0.010937    0.049772   -0.152582    0.197209
                              0.031227     0.000567    0.001660   -0.003177    0.027497
    1.7 B3g   1  3d1-        69.582346     0.000025   -0.000072   -0.000104    0.001660
    2.7 B3g                  36.601738    -0.000064    0.000277    0.000414   -0.007501
    3.7 B3g                  19.253263    -0.000576    0.000052   -0.000097    0.023466
    4.7 B3g                  10.127610     0.015407   -0.017626   -0.024748   -0.099653
                              5.327330    -0.090881    0.115701    0.175276    0.449329
                              2.802285     0.051156   -0.072020   -0.137390   -0.699925
                              1.474059     0.271027   -0.456700   -0.970951   -1.281520
                              0.775385     0.351688   -0.416372    0.304447    2.836972
                              0.407869     0.302463    0.235209    1.178125   -1.450206
                              0.214547     0.179813    0.527234   -0.387716   -0.794421
                              0.112856     0.070886    0.277586   -0.551097    0.849320
                              0.059365     0.010937    0.049772   -0.152582    0.197209
                              0.031227     0.000567    0.001660   -0.003177    0.027497

 NUCLEAR CHARGE:                   17
 NUMBER OF PRIMITIVE AOS:         130
 NUMBER OF SYMMETRY AOS:          117
 NUMBER OF CONTRACTIONS:           40   (  13Ag  +   5B3u +   5B2u +   4B1g +   5B1u +   4B2g +   4B3g +   0Au  )
 NUMBER OF CORE ORBITALS:           4   (   1Ag  +   1B3u +   1B2u +   0B1g +   1B1u +   0B2g +   0B3g +   0Au  )
 NUMBER OF VALENCE ORBITALS:        6   (   3Ag  +   0B3u +   0B2u +   1B1g +   0B1u +   1B2g +   1B3g +   0Au  )


 NUCLEAR REPULSION ENERGY    0.00000000

 EXTRA SYMMETRY OF AOS IN SYMMETRY 1:   1 1 1 1 1 2 3 2 3 2   3 2 3

 Eigenvalues of metric

         1 0.983E+00 0.994E+00 0.994E+00 0.100E+01 0.100E+01 0.100E+01 0.100E+01 0.100E+01
         2 0.100E+01 0.100E+01 0.100E+01 0.100E+01 0.100E+01
         3 0.100E+01 0.100E+01 0.100E+01 0.100E+01 0.100E+01
         4 0.994E+00 0.100E+01 0.100E+01 0.101E+01
         5 0.100E+01 0.100E+01 0.100E+01 0.100E+01 0.100E+01
         6 0.994E+00 0.100E+01 0.100E+01 0.101E+01
         7 0.994E+00 0.100E+01 0.100E+01 0.101E+01


 Contracted 2-electron integrals neglected if value below      1.0D-12
 AO integral compression algorithm  1   Integral accuracy      1.0D-12

     3.932 MB (compressed) written to integral file (100.0%)

     Node minimum: 0.262 MB, node maximum: 0.262 MB


 NUMBER OF SORTED TWO-ELECTRON INTEGRALS:       3216.     BUFFER LENGTH:  32768
 NUMBER OF SEGMENTS:   1  SEGMENT LENGTH:       3216      RECORD LENGTH: 524288

 Memory used in sort:       0.56 MW

 SORT1 READ      141372. AND WROTE        2859. INTEGRALS IN      1 RECORDS. CPU TIME:     0.02 SEC, REAL TIME:     1.24 SEC
 SORT2 READ       44321. AND WROTE       49957. INTEGRALS IN     15 RECORDS. CPU TIME:     0.00 SEC, REAL TIME:     0.05 SEC

 Node minimum:        2244.  Node maximum:        4222. integrals

 OPERATOR DM      FOR CENTER  0  COORDINATES:    0.000000    0.000000    0.000000


 **********************************************************************************************************************************
 DATASETS  * FILE   NREC   LENGTH (MB)   RECORD NAMES
              1      19       19.90       500      610      700      900      950      970     1000      129      960     1100   
                                          VAR    BASINP    GEOM    SYMINP    ZMAT    AOBASIS   BASIS     P2S    ABASIS      S 
                                         1400     1410     1420     1200     1210     1080     1600     1650     1700   
                                           T        V       ECP      H0       H01     AOSYM     SMH    MOLCAS    OPER   

 PROGRAMS   *        TOTAL       INT
 CPU TIMES  *         0.90      0.59
 REAL TIME  *         4.00 SEC
 DISK USED  *        63.69 MB      
 GA USED    *         0.00 MB       (max)       0.00 MB       (current)
 **********************************************************************************************************************************


 PROGRAM * RHF-SCF (OPEN SHELL)       Authors: W. Meyer, H.-J. Werner


 NUMBER OF ELECTRONS:      10+    7-    SPACE SYMMETRY=1    SPIN SYMMETRY: Quartet 
 CONVERGENCE THRESHOLDS:    1.00E-05 (Density)    1.00E-07 (Energy)
 MAX. NUMBER OF ITERATIONS:       60
 INTERPOLATION TYPE:            DIIS
 INTERPOLATION STEPS:              2 (START)      1 (STEP)
 LEVEL SHIFTS:                 -0.60 (CLOSED) -0.30 (OPEN) 

 Number of closed-shell orbitals:    7 (   4   1   1   0   1   0   0 )
 Number of open-shell orbitals:      3 (   0   0   0   1   0   1   1 )


 
 Extra symmetries of mos in symmetry 1:   1   1   3   2

   Atom=IR basis=cc-pVTZ-PP        lmin=0  lmax=2

 Orbital guess generated from atomic densities. Full valence occupancy:    4   1   1   1   1   1   1   0


 Molecular orbital dump at record        4202.2

 ITERATION    DDIFF          GRAD             ENERGY        2-EL.EN.            DIPOLE MOMENTS         DIIS   ORB.
    1      0.000D+00      0.000D+00      -103.66131884    153.069422    0.00000    0.00000    0.00000    0    start
    2      0.000D+00      0.768D-02      -103.66481799    152.983824    0.00000    0.00000    0.00000    1    diag,B
    3      0.328D-02      0.225D-02      -103.66568585    153.070132    0.00000    0.00000    0.00000    2    diag,B
    4      0.207D-02      0.108D-02      -103.66592862    153.035089    0.00000    0.00000    0.00000    3    diag,B
    5      0.156D-02      0.431D-03      -103.66597849    152.997543    0.00000    0.00000    0.00000    4    diag,B
    6      0.884D-03      0.174D-03      -103.66598789    152.973203    0.00000    0.00000    0.00000    5    diag,B
    7      0.517D-03      0.413D-04      -103.66598824    152.971179    0.00000    0.00000    0.00000    6    fixocc
    8      0.828D-04      0.940D-05      -103.66598825    152.971103    0.00000    0.00000    0.00000    7    diag,B
    9      0.152D-04      0.254D-05      -103.66598825    152.971370    0.00000    0.00000    0.00000    8    diag,B
   10      0.392D-05      0.382D-06      -103.66598825    152.971338    0.00000    0.00000    0.00000    0    orth

 Final alpha occupancy:   4   1   1   1   1   1   1
 Final beta  occupancy:   4   1   1   0   1   0   0

 !RHF STATE 1.1 Energy               -103.665988254501
 Nuclear energy                         0.00000000
 One-electron energy                 -180.15165703
 Two-electron energy                   76.48566878
 Virial quotient                       -2.97346233
 !RHF STATE 1.1 Dipole moment           0.00000000     0.00000000     0.00000000
 Dipole moment /Debye                   0.00000000     0.00000000     0.00000000

 ELECTRON ORBITALS
 =================


   Orb  Occ    Energy  Couls-En    Coefficients

                                   1 1s      1 1s      1 1s      1 1s      1 1s      1 3d0     1 3d2+    1 3d0     1 3d2+    1 3d0  
                                   1 3d2+    1 3d0     1 3d2+ 

   1.1   2    -4.2244  -18.8544  1.000000  0.000045 -0.000053  0.000032  0.000006 -0.000000 -0.000000 -0.000000 -0.000000  0.000000
                                 0.000000 -0.000000 -0.000000

   2.1   2    -0.2965   -6.2572 -0.000044  0.999989  0.000666  0.000122 -0.000040  0.000000  0.000000  0.000000  0.000000 -0.000000
                                -0.000000  0.000000  0.000000

   3.1   2    -0.4570   -9.5361  0.000000 -0.000000 -0.000000  0.000000 -0.000000 -0.000201  0.999867 -0.000002  0.010649  0.000001
                                -0.004070 -0.000000  0.000342

   4.1   2    -0.4570   -9.5361  0.000000 -0.000000 -0.000000 -0.000000  0.000000  0.999867  0.000201  0.010649  0.000002 -0.004070
                                -0.000001  0.000342  0.000000

                                   1 2px     1 2px     1 2px     1 2px     1 2px  

   1.2   2    -2.4548  -14.9761  1.000000  0.000071  0.000072  0.000030 -0.000000

                                   1 2py     1 2py     1 2py     1 2py     1 2py  

   1.3   2    -2.4548  -14.9761  1.000000  0.000071  0.000072  0.000030 -0.000000

                                   1 3d2-    1 3d2-    1 3d2-    1 3d2- 

   1.4   +    -0.5272   -9.7026  0.999950 -0.016640  0.006095 -0.000327

                                   1 2pz     1 2pz     1 2pz     1 2pz     1 2pz  

   1.5   2    -2.4548  -14.9761  1.000000  0.000071  0.000072  0.000030 -0.000000

                                   1 3d1+    1 3d1+    1 3d1+    1 3d1+ 

   1.6   +    -0.5272   -9.7026  0.999950 -0.016640  0.006095 -0.000327

                                   1 3d1-    1 3d1-    1 3d1-    1 3d1- 

   1.7   +    -0.5272   -9.7026  0.999950 -0.016640  0.006095 -0.000327

 HOMO      4.1    -0.456964 =     -12.4346eV
 LUMO      2.2     0.075621 =       2.0578eV
 LUMO-HOMO         0.532585 =      14.4924eV


 **********************************************************************************************************************************
 DATASETS  * FILE   NREC   LENGTH (MB)   RECORD NAMES
              1      19       19.90       500      610      700      900      950      970     1000      129      960     1100   
                                          VAR    BASINP    GEOM    SYMINP    ZMAT    AOBASIS   BASIS     P2S    ABASIS      S 
                                         1400     1410     1420     1200     1210     1080     1600     1650     1700   
                                           T        V       ECP      H0       H01     AOSYM     SMH    MOLCAS    OPER   

              2       4        2.76       700     1000      520     4202   
                                         GEOM     BASIS   MCVARS     RHF  

 PROGRAMS   *        TOTAL       RHF       INT
 CPU TIMES  *         1.12      0.21      0.59
 REAL TIME  *         4.40 SEC
 DISK USED  *       405.09 MB      
 SF USED    *         0.00 MB      
 GA USED    *         0.00 MB       (max)       0.00 MB       (current)
 **********************************************************************************************************************************


 PROGRAM * POP (Mulliken population analysis)

 
 Density matrix read from record         4202.2  Type=RHF/CHARGE (state 1.1)
 
 Population analysis by basis function type

 Unique atom        s        p        d        f        g    Total    Charge
   1  IR      4.00000  6.00000  7.00000  0.00000  0.00000 17.00000  - 0.00000


 **********************************************************************************************************************************
 DATASETS  * FILE   NREC   LENGTH (MB)   RECORD NAMES
              1      19       19.90       500      610      700      900      950      970     1000      129      960     1100   
                                          VAR    BASINP    GEOM    SYMINP    ZMAT    AOBASIS   BASIS     P2S    ABASIS      S 
                                         1400     1410     1420     1200     1210     1080     1600     1650     1700   
                                           T        V       ECP      H0       H01     AOSYM     SMH    MOLCAS    OPER   

              2       4        2.76       700     1000      520     4202   
                                         GEOM     BASIS   MCVARS     RHF  

 PROGRAMS   *        TOTAL       POP       RHF       INT
 CPU TIMES  *         1.13      0.00      0.21      0.59
 REAL TIME  *         4.46 SEC
 DISK USED  *       405.09 MB      
 SF USED    *         0.00 MB      
 GA USED    *         0.00 MB       (max)       0.00 MB       (current)
 **********************************************************************************************************************************


 PROGRAM * MULTI (Direct Multiconfiguration SCF)       Authors: P.J. Knowles, H.-J. Werner (1984)     S.T. Elbert (1988)


 Number of frozen core orbitals:    5 (   2   1   1   0   1   0   0   0 )
 Number of active  orbitals:        5 (   2   0   0   1   0   1   1   0 )
 Number of external orbitals:      30 (   9   4   4   3   4   3   3   0 )

 State symmetry 1

 Number of electrons:     7    Spin symmetry=Quartet   Space symmetry=1
 Number of states:        1
 Number of CSFs:          1   (1 determinants, 10 intermediate states)

 State symmetry 2

 Number of electrons:     7    Spin symmetry=Quartet   Space symmetry=4
 Number of states:        3
 Number of CSFs:          3   (3 determinants, 10 intermediate states)

 State symmetry 3

 Number of electrons:     7    Spin symmetry=Quartet   Space symmetry=6
 Number of states:        3
 Number of CSFs:          3   (3 determinants, 10 intermediate states)

 State symmetry 4

 Number of electrons:     7    Spin symmetry=Quartet   Space symmetry=7
 Number of states:        3
 Number of CSFs:          3   (3 determinants, 10 intermediate states)

 Iteration controls:
             1  2  3  4  5  6  7  8  9 10 11 12 13 14 15 16 17 18 19 20 21 22 23 24 25 26 27 28 29 30 31 32 33 34 35 36 37 38 39
 DIAGCI      T  T  T  T  T  T  T  T  T  T  T  T  T  T  T  T  T  T  T  T  T  T  T  T  T  T  T  T  T  T  T  T  T  T  T  T  T  T  T
 WERNER      T  T  T  T  T  T  T  T  T  T  T  T  T  T  T  T  T  T  T  T  T  T  T  T  T  T  T  T  T  T  T  T  T  T  T  T  T  T  T
 INTERNAL    F  T  T  T  T  T  T  T  T  T  T  T  T  T  T  T  T  T  T  T  T  T  T  T  T  T  T  T  T  T  T  T  T  T  T  T  T  T  T

 Valence orbitals read from record       4202.2  Type=RHF/CANONICAL (state 1.1)
 Frozen core orbitals read from record   4202.2  Type=RHF/CANONICAL (state 1.1)
 *** IN SYMMETRY 1 ORBITAL  3 SYMMETRY CONTAMINATION OF 0.201D-03 HAS BEEN REMOVED
 *** IN SYMMETRY 1 ORBITAL  4 SYMMETRY CONTAMINATION OF 0.201D-03 HAS BEEN REMOVED

 EXTRA SYMMETRY OF MOS IN SYMMETRY 1:   0 0 3 2 1 2 3 1 3 2   1 2 3

 Wavefunction dump at record             4203.2

 Convergence thresholds  0.10E-01 (gradient)  0.10E-05 (energy)  0.10E-02 (step length)

 Weight factors for state symmetry  1:    0.10000
 Weight factors for state symmetry  2:    0.10000   0.10000   0.10000
 Weight factors for state symmetry  3:    0.10000   0.10000   0.10000
 Weight factors for state symmetry  4:    0.10000   0.10000   0.10000

 Number of orbital rotations:       27   (     0 Core/Active      0 Core/Virtual   0 Active/Active     27 Active/Virtual)
 Total number of variables:         55


 ITER. MIC  NCI  NEG     ENERGY(VAR)     ENERGY(PROJ)   ENERGY CHANGE     GRAD(0)  GRAD(ORB)   GRAD(CI)     STEP       TIME

   1   26   16    0    -103.64681486    -103.64804401   -0.00122915    0.04088558 0.00000000 0.00000000  0.34D-01      0.03
   2   13   16    0    -103.64804744    -103.64804747   -0.00000003    0.00022369 0.00000000 0.00000000  0.15D-03      0.05
   3   22   16    0    -103.64804747    -103.64804747    0.00000000    0.00000001 0.00000000 0.00000000  0.43D-08      0.08

 ** WVFN ****  CONVERGENCE REACHED, FINAL GRADIENT:  0.26D-15



 Results for state 1.1
 =====================

 !MCSCF STATE 1.1 Energy             -103.665041275184
 Nuclear energy                         0.00000000
 Kinetic energy                        34.84831301
 One electron energy                 -180.13345559
 Two electron energy                   76.46841432
 Virial ratio                           3.97475064

 !MCSCF STATE 1.1 Dipole moment         0.00000000     0.00000000     0.00000000
 Dipole moment /Debye                   0.00000000     0.00000000     0.00000000



 Results for state 1.4
 =====================

 !MCSCF STATE 1.4 Energy             -103.665041275184
 Nuclear energy                         0.00000000
 Kinetic energy                        34.84831301
 One electron energy                 -180.13345559
 Two electron energy                   76.46841432
 Virial ratio                           3.97475064

 !MCSCF STATE 1.4 Dipole moment         0.00000000     0.00000000     0.00000000
 Dipole moment /Debye                   0.00000000     0.00000000     0.00000000

 Results for state 2.4
 =====================

 !MCSCF STATE 2.4 Energy             -103.665041275184
 Nuclear energy                         0.00000000
 Kinetic energy                        34.84831301
 One electron energy                 -180.13345559
 Two electron energy                   76.46841432
 Virial ratio                           3.97475064

 !MCSCF STATE 2.4 Dipole moment         0.00000000     0.00000000     0.00000000
 Dipole moment /Debye                   0.00000000     0.00000000     0.00000000

 Results for state 3.4
 =====================

 !MCSCF STATE 3.4 Energy             -103.608395268421
 Nuclear energy                         0.00000000
 Kinetic energy                        34.84831301
 One electron energy                 -180.13345559
 Two electron energy                   76.52506032
 Virial ratio                           3.97312513

 !MCSCF STATE 3.4 Dipole moment         0.00000000     0.00000000     0.00000000
 Dipole moment /Debye                   0.00000000     0.00000000     0.00000000



 Results for state 1.6
 =====================

 !MCSCF STATE 1.6 Energy             -103.665041275184
 Nuclear energy                         0.00000000
 Kinetic energy                        34.84831301
 One electron energy                 -180.13345559
 Two electron energy                   76.46841432
 Virial ratio                           3.97475064

 !MCSCF STATE 1.6 Dipole moment         0.00000000     0.00000000     0.00000000
 Dipole moment /Debye                   0.00000000     0.00000000     0.00000000

 Results for state 2.6
 =====================

 !MCSCF STATE 2.6 Energy             -103.665041275184
 Nuclear energy                         0.00000000
 Kinetic energy                        34.84831301
 One electron energy                 -180.13345559
 Two electron energy                   76.46841432
 Virial ratio                           3.97475064

 !MCSCF STATE 2.6 Dipole moment         0.00000000     0.00000000     0.00000000
 Dipole moment /Debye                   0.00000000     0.00000000     0.00000000

 Results for state 3.6
 =====================

 !MCSCF STATE 3.6 Energy             -103.608395268421
 Nuclear energy                         0.00000000
 Kinetic energy                        34.84831301
 One electron energy                 -180.13345559
 Two electron energy                   76.52506032
 Virial ratio                           3.97312513

 !MCSCF STATE 3.6 Dipole moment         0.00000000     0.00000000     0.00000000
 Dipole moment /Debye                   0.00000000     0.00000000     0.00000000



 Results for state 1.7
 =====================

 !MCSCF STATE 1.7 Energy             -103.665041275184
 Nuclear energy                         0.00000000
 Kinetic energy                        34.84831301
 One electron energy                 -180.13345559
 Two electron energy                   76.46841432
 Virial ratio                           3.97475064

 !MCSCF STATE 1.7 Dipole moment         0.00000000     0.00000000     0.00000000
 Dipole moment /Debye                   0.00000000     0.00000000     0.00000000

 Results for state 2.7
 =====================

 !MCSCF STATE 2.7 Energy             -103.665041275184
 Nuclear energy                         0.00000000
 Kinetic energy                        34.84831301
 One electron energy                 -180.13345559
 Two electron energy                   76.46841432
 Virial ratio                           3.97475064

 !MCSCF STATE 2.7 Dipole moment         0.00000000     0.00000000     0.00000000
 Dipole moment /Debye                   0.00000000     0.00000000     0.00000000

 Results for state 3.7
 =====================

 !MCSCF STATE 3.7 Energy             -103.608395268421
 Nuclear energy                         0.00000000
 Kinetic energy                        34.84831301
 One electron energy                 -180.13345559
 Two electron energy                   76.52506032
 Virial ratio                           3.97312513

 !MCSCF STATE 3.7 Dipole moment         0.00000000     0.00000000     0.00000000
 Dipole moment /Debye                   0.00000000     0.00000000     0.00000000

 State-averaged charge density matrix saved on record  4203.2 (density set 1)


 NATURAL ORBITALS (state averaged)
 =================================

   Orb     Occ        Energy       Coefficients

                                   1 1s      1 1s      1 1s      1 1s      1 1s      1 3d0     1 3d2+    1 3d0     1 3d2+    1 3d0  
                                   1 3d2+    1 3d0     1 3d2+ 

   3.1  1.40000    -0.308436     0.000000  0.000000  0.000000  0.000000  0.000000  1.000001  0.000000 -0.000099  0.000000  0.000027
                                 0.000000 -0.000009  0.000000

   4.1  1.40000    -0.308436     0.000000  0.000000  0.000000  0.000000  0.000000  0.000000  1.000001  0.000000 -0.000099  0.000000
                                 0.000027  0.000000 -0.000009

                                   1 3d2-    1 3d2-    1 3d2-    1 3d2- 

   1.4  1.40000    -0.308436     1.000001 -0.000099  0.000027 -0.000009

                                   1 3d1+    1 3d1+    1 3d1+    1 3d1+ 

   1.6  1.40000    -0.308436     1.000001 -0.000099  0.000027 -0.000009

                                   1 3d1-    1 3d1-    1 3d1-    1 3d1- 

   1.7  1.40000    -0.308436     1.000001 -0.000099  0.000027 -0.000009
 

 EXTRA SYMMETRY OF MOS IN SYMMETRY 1:   0 0 2 3 1 2 3 1 3 2   1 2 3

 Natural orbital dump (state averaged) at molpro section  4203.2    (Orbital set 2)



 **********************************************************************************************************************************
 DATASETS  * FILE   NREC   LENGTH (MB)   RECORD NAMES
              1      20       19.95       500      610      700      900      950      970     1000      129      960     1100   
                                          VAR    BASINP    GEOM    SYMINP    ZMAT    AOBASIS   BASIS     P2S    ABASIS      S 
                                         1400     1410     1420     1200     1210     1080     1600     1650     1700     1380   
                                           T        V       ECP      H0       H01     AOSYM     SMH    MOLCAS    OPER     JKOP   

              2       5        5.27       700     1000      520     4202     4203   
                                         GEOM     BASIS   MCVARS     RHF     MCSCF   

 PROGRAMS   *        TOTAL     MULTI       POP       RHF       INT
 CPU TIMES  *         1.33      0.20      0.00      0.21      0.59
 REAL TIME  *         5.90 SEC
 DISK USED  *       405.09 MB      
 SF USED    *        11.93 MB      
 GA USED    *         0.00 MB       (max)       0.00 MB       (current)
 **********************************************************************************************************************************


 PROGRAM * MULTI (Direct Multiconfiguration SCF)       Authors: P.J. Knowles, H.-J. Werner (1984)     S.T. Elbert (1988)


 Number of closed-shell orbitals:   5 (   2   1   1   0   1   0   0   0 )
 Number of active  orbitals:        5 (   2   0   0   1   0   1   1   0 )
 Number of external orbitals:      30 (   9   4   4   3   4   3   3   0 )

 State symmetry 1

 Number of electrons:     7    Spin symmetry=Quartet   Space symmetry=1
 Number of states:        1
 Number of CSFs:          1   (1 determinants, 10 intermediate states)

 State symmetry 2

 Number of electrons:     7    Spin symmetry=Quartet   Space symmetry=4
 Number of states:        3
 Number of CSFs:          3   (3 determinants, 10 intermediate states)

 State symmetry 3

 Number of electrons:     7    Spin symmetry=Quartet   Space symmetry=6
 Number of states:        3
 Number of CSFs:          3   (3 determinants, 10 intermediate states)

 State symmetry 4

 Number of electrons:     7    Spin symmetry=Quartet   Space symmetry=7
 Number of states:        3
 Number of CSFs:          3   (3 determinants, 10 intermediate states)

 Iteration controls:
             1  2  3  4  5  6  7  8  9 10 11 12 13 14 15 16 17 18 19 20 21 22 23 24 25 26 27 28 29 30 31 32 33 34 35 36 37 38 39
 DIAGCI      T  T  T  T  T  T  T  T  T  T  T  T  T  T  T  T  T  T  T  T  T  T  T  T  T  T  T  T  T  T  T  T  T  T  T  T  T  T  T
 WERNER      T  T  T  T  T  T  T  T  T  T  T  T  T  T  T  T  T  T  T  T  T  T  T  T  T  T  T  T  T  T  T  T  T  T  T  T  T  T  T
 INTERNAL    F  T  T  T  T  T  T  T  T  T  T  T  T  T  T  T  T  T  T  T  T  T  T  T  T  T  T  T  T  T  T  T  T  T  T  T  T  T  T

 Molecular orbitals read from record     4203.2  Type=MCSCF/NATURAL (state averaged)

 EXTRA SYMMETRY OF MOS IN SYMMETRY 1:   1 1 2 3 1 2 3 1 3 2   1 2 3

 Wavefunction dump at record             5202.2

 Convergence thresholds  0.10E-01 (gradient)  0.10E-05 (energy)  0.10E-02 (step length)

 Weight factors for state symmetry  1:    0.10000
 Weight factors for state symmetry  2:    0.10000   0.10000   0.10000
 Weight factors for state symmetry  3:    0.10000   0.10000   0.10000
 Weight factors for state symmetry  4:    0.10000   0.10000   0.10000

 Number of orbital rotations:       61   (     4 Core/Active     30 Core/Virtual   0 Active/Active     27 Active/Virtual)
 Total number of variables:         89


 ITER. MIC  NCI  NEG     ENERGY(VAR)     ENERGY(PROJ)   ENERGY CHANGE     GRAD(0)  GRAD(ORB)   GRAD(CI)     STEP       TIME

   1   37   20    0    -103.64804747    -103.64804819   -0.00000072    0.00178247 0.00000000 0.00000000  0.74D-03      0.03
   2   50   48    0    -103.64804819    -103.64804819   -0.00000000    0.00000023 0.00000000 0.00000000  0.13D-06      0.12

 ** WVFN ****  CONVERGENCE REACHED, FINAL GRADIENT:  0.48D-14



 Results for state 1.1
 =====================

 !MCSCF STATE 1.1 Energy             -103.665040257390
 Nuclear energy                         0.00000000
 Kinetic energy                        34.85059898
 One electron energy                 -180.13768473
 Two electron energy                   76.47264447
 Virial ratio                           3.97455548

 !MCSCF STATE 1.1 Dipole moment         0.00000000     0.00000000     0.00000000
 Dipole moment /Debye                   0.00000000     0.00000000     0.00000000



 Results for state 1.4
 =====================

 !MCSCF STATE 1.4 Energy             -103.665040257390
 Nuclear energy                         0.00000000
 Kinetic energy                        34.85059898
 One electron energy                 -180.13768473
 Two electron energy                   76.47264447
 Virial ratio                           3.97455548

 !MCSCF STATE 1.4 Dipole moment         0.00000000     0.00000000     0.00000000
 Dipole moment /Debye                   0.00000000     0.00000000     0.00000000

 Results for state 2.4
 =====================

 !MCSCF STATE 2.4 Energy             -103.665040257390
 Nuclear energy                         0.00000000
 Kinetic energy                        34.85059898
 One electron energy                 -180.13768473
 Two electron energy                   76.47264447
 Virial ratio                           3.97455548

 !MCSCF STATE 2.4 Dipole moment         0.00000000     0.00000000     0.00000000
 Dipole moment /Debye                   0.00000000     0.00000000     0.00000000

 Results for state 3.4
 =====================

 !MCSCF STATE 3.4 Energy             -103.608400026841
 Nuclear energy                         0.00000000
 Kinetic energy                        34.85059898
 One electron energy                 -180.13768473
 Two electron energy                   76.52928470
 Virial ratio                           3.97293025

 !MCSCF STATE 3.4 Dipole moment         0.00000000     0.00000000     0.00000000
 Dipole moment /Debye                   0.00000000     0.00000000     0.00000000



 Results for state 1.6
 =====================

 !MCSCF STATE 1.6 Energy             -103.665040257390
 Nuclear energy                         0.00000000
 Kinetic energy                        34.85059898
 One electron energy                 -180.13768473
 Two electron energy                   76.47264447
 Virial ratio                           3.97455548

 !MCSCF STATE 1.6 Dipole moment         0.00000000     0.00000000     0.00000000
 Dipole moment /Debye                   0.00000000     0.00000000     0.00000000

 Results for state 2.6
 =====================

 !MCSCF STATE 2.6 Energy             -103.665040257390
 Nuclear energy                         0.00000000
 Kinetic energy                        34.85059898
 One electron energy                 -180.13768473
 Two electron energy                   76.47264447
 Virial ratio                           3.97455548

 !MCSCF STATE 2.6 Dipole moment         0.00000000     0.00000000     0.00000000
 Dipole moment /Debye                   0.00000000     0.00000000     0.00000000

 Results for state 3.6
 =====================

 !MCSCF STATE 3.6 Energy             -103.608400026841
 Nuclear energy                         0.00000000
 Kinetic energy                        34.85059898
 One electron energy                 -180.13768473
 Two electron energy                   76.52928470
 Virial ratio                           3.97293025

 !MCSCF STATE 3.6 Dipole moment         0.00000000     0.00000000     0.00000000
 Dipole moment /Debye                   0.00000000     0.00000000     0.00000000



 Results for state 1.7
 =====================

 !MCSCF STATE 1.7 Energy             -103.665040257390
 Nuclear energy                         0.00000000
 Kinetic energy                        34.85059898
 One electron energy                 -180.13768473
 Two electron energy                   76.47264447
 Virial ratio                           3.97455548

 !MCSCF STATE 1.7 Dipole moment         0.00000000     0.00000000     0.00000000
 Dipole moment /Debye                   0.00000000     0.00000000     0.00000000

 Results for state 2.7
 =====================

 !MCSCF STATE 2.7 Energy             -103.665040257390
 Nuclear energy                         0.00000000
 Kinetic energy                        34.85059898
 One electron energy                 -180.13768473
 Two electron energy                   76.47264447
 Virial ratio                           3.97455548

 !MCSCF STATE 2.7 Dipole moment         0.00000000     0.00000000     0.00000000
 Dipole moment /Debye                   0.00000000     0.00000000     0.00000000

 Results for state 3.7
 =====================

 !MCSCF STATE 3.7 Energy             -103.608400026841
 Nuclear energy                         0.00000000
 Kinetic energy                        34.85059898
 One electron energy                 -180.13768473
 Two electron energy                   76.52928470
 Virial ratio                           3.97293025

 !MCSCF STATE 3.7 Dipole moment         0.00000000     0.00000000     0.00000000
 Dipole moment /Debye                   0.00000000     0.00000000     0.00000000

 State-averaged charge density matrix saved on record  5202.2 (density set 1)


 NATURAL ORBITALS (state averaged)
 =================================

   Orb     Occ        Energy       Coefficients

                                   1 1s      1 1s      1 1s      1 1s      1 1s      1 3d0     1 3d2+    1 3d0     1 3d2+    1 3d0  
                                   1 3d2+    1 3d0     1 3d2+ 

   1.1  2.00000    -4.225788     1.000000  0.000000  0.000000  0.000000 -0.000000  0.000000  0.000000  0.000000  0.000000  0.000000
                                 0.000000  0.000000  0.000000

   2.1  2.00000    -0.296846    -0.000000  1.000000 -0.000000  0.000000  0.000000  0.000000  0.000000  0.000000  0.000000  0.000000
                                 0.000000  0.000000  0.000000

   3.1  1.40000    -0.308193     0.000000  0.000000  0.000000  0.000000  0.000000  0.000000  1.000000  0.000000 -0.000000  0.000000
                                -0.000000  0.000000 -0.000000

   4.1  1.40000    -0.308193     0.000000  0.000000  0.000000  0.000000  0.000000  1.000000  0.000000 -0.000000  0.000000 -0.000000
                                 0.000000 -0.000000  0.000000

                                   1 2px     1 2px     1 2px     1 2px     1 2px  

   1.2  2.00000    -2.456013     1.000000  0.000001 -0.000000 -0.000000 -0.000000

                                   1 2py     1 2py     1 2py     1 2py     1 2py  

   1.3  2.00000    -2.456013     1.000000  0.000001 -0.000000 -0.000000 -0.000000

                                   1 3d2-    1 3d2-    1 3d2-    1 3d2- 

   1.4  1.40000    -0.308193     1.000000 -0.000000 -0.000000 -0.000000

                                   1 2pz     1 2pz     1 2pz     1 2pz     1 2pz  

   1.5  2.00000    -2.456013     1.000000  0.000001 -0.000000 -0.000000 -0.000000

                                   1 3d1+    1 3d1+    1 3d1+    1 3d1+ 

   1.6  1.40000    -0.308193     1.000000 -0.000000 -0.000000 -0.000000

                                   1 3d1-    1 3d1-    1 3d1-    1 3d1- 

   1.7  1.40000    -0.308193     1.000000 -0.000000 -0.000000 -0.000000
 

 EXTRA SYMMETRY OF MOS IN SYMMETRY 1:   1 1 3 2 1 2 3 1 3 2   1 2 3

 Natural orbital dump (state averaged) at molpro section  5202.2    (Orbital set 2)


 CI vector for state symmetry 1
 ==============================

 22 a a a          1.0000000

 TOTAL ENERGIES                      -103.66504026

 CI vector for state symmetry 2
 ==============================

 a2 2 a a          1.0000000   0.0000000   0.0000000
 aa a 2 2          0.0000000   0.8944272  -0.4472136
 2a 2 a a          0.0000000   0.4472136   0.8944272

 TOTAL ENERGIES                      -103.66504026  -103.66504026  -103.60840003

 CI vector for state symmetry 3
 ==============================

 2a a 2 a          0.0000000   0.8944272   0.4472136
 aa 2 a 2          0.8660254   0.2236068  -0.4472136
 a2 a 2 a          0.5000000  -0.3872983   0.7745967

 TOTAL ENERGIES                      -103.66504026  -103.66504026  -103.60840003

 CI vector for state symmetry 4
 ==============================

 aa 2 2 a          0.8910660  -0.0774683  -0.4472136
 2a a a 2         -0.1477582   0.8821380  -0.4472136
 a2 a a 2          0.4291490   0.4645763   0.7745967

 TOTAL ENERGIES                      -103.66504026  -103.66504026  -103.60840003



 **********************************************************************************************************************************
 DATASETS  * FILE   NREC   LENGTH (MB)   RECORD NAMES
              1      20       20.06       500      610      700      900      950      970     1000      129      960     1100   
                                          VAR    BASINP    GEOM    SYMINP    ZMAT    AOBASIS   BASIS     P2S    ABASIS      S 
                                         1400     1410     1420     1200     1210     1080     1600     1650     1700     1380   
                                           T        V       ECP      H0       H01     AOSYM     SMH    MOLCAS    OPER     JKOP   

              2       6        7.79       700     1000      520     4202     4203     5202   
                                         GEOM     BASIS   MCVARS     RHF     MCSCF    MCSCF   

 PROGRAMS   *        TOTAL     MULTI     MULTI       POP       RHF       INT
 CPU TIMES  *         1.60      0.27      0.20      0.00      0.21      0.59
 REAL TIME  *         7.39 SEC
 DISK USED  *       405.09 MB      
 SF USED    *        12.28 MB      
 GA USED    *         0.00 MB       (max)       0.00 MB       (current)
 **********************************************************************************************************************************


 PROGRAM * RHF-SCF (OPEN SHELL)       Authors: W. Meyer, H.-J. Werner


 NUMBER OF ELECTRONS:      10+    7-    SPACE SYMMETRY=1    SPIN SYMMETRY: Quartet 
 CONVERGENCE THRESHOLDS:    1.00E-05 (Density)    1.00E-07 (Energy)
 MAX. NUMBER OF ITERATIONS:        0
 INTERPOLATION TYPE:            DIIS
 INTERPOLATION STEPS:              2 (START)      1 (STEP)
 LEVEL SHIFTS:                 -0.60 (CLOSED) -0.30 (OPEN) 

 Number of closed-shell orbitals:    7 (   4   1   1   0   1   0   0 )
 Number of open-shell orbitals:      3 (   0   0   0   1   0   1   1 )


 Molecular orbitals read from record     5202.2  Type=MCSCF/NATURAL (state averaged)

 Molecular orbital dump at record        2101.2

 ITERATION    DDIFF          GRAD             ENERGY        2-EL.EN.            DIPOLE MOMENTS         DIIS   ORB.
    1      0.000D+00      0.000D+00      -103.66504026    152.945289    0.00000    0.00000    0.00000    0    start

 Final alpha occupancy:   4   1   1   1   1   1   1
 Final beta  occupancy:   4   1   1   0   1   0   0

 !RHF STATE 1.1 Energy               -103.665040257390
 Nuclear energy                         0.00000000
 One-electron energy                 -180.13768473
 Two-electron energy                   76.47264447
 Virial quotient                       -2.97455548
 !RHF STATE 1.1 Dipole moment           0.00000000     0.00000000     0.00000000
 Dipole moment /Debye                   0.00000000     0.00000000     0.00000000

 ELECTRON ORBITALS
 =================


   Orb  Occ    Energy  Couls-En    Coefficients

                                   1 1s      1 1s      1 1s      1 1s      1 1s      1 3d0     1 3d2+    1 3d0     1 3d2+    1 3d0  
                                   1 3d2+    1 3d0     1 3d2+ 

   1.1   2    -4.2258  -18.8559  1.000000  0.000000  0.000000  0.000000 -0.000000  0.000000  0.000000  0.000000  0.000000  0.000000
                                 0.000000  0.000000  0.000000

   2.1   2    -0.2968   -6.2598 -0.000000  1.000000 -0.000000  0.000000  0.000000  0.000000  0.000000  0.000000  0.000000  0.000000
                                 0.000000  0.000000  0.000000

   3.1   2    -0.3082   -9.4256  0.000000  0.000000  0.000000  0.000000  0.000000  0.000000  1.000000  0.000000 -0.000000  0.000000
                                -0.000000  0.000000 -0.000000

   4.1   2    -0.3082   -9.4256  0.000000  0.000000  0.000000  0.000000  0.000000  1.000000  0.000000 -0.000000  0.000000 -0.000000
                                 0.000000 -0.000000  0.000000

   5.1   0     0.1899   -3.5198  0.000000 -0.016464  0.831149  0.514533 -0.211466  0.000000  0.000000  0.000000  0.000000  0.000000
                                 0.000000  0.000000  0.000000

   6.1   0     0.4114   -3.9038  0.000000  0.000000  0.000000  0.000000  0.000000 -0.005009  0.000000  0.782744  0.000000 -0.577944
                                 0.000000  0.230906  0.000000

                                   1 2px     1 2px     1 2px     1 2px     1 2px  

   1.2   2    -2.4560  -14.9776  1.000000  0.000001 -0.000000 -0.000000 -0.000000

   2.2   0     0.0851   -4.3803  0.000001  0.894790 -0.397750  0.190261 -0.070330

   3.2   0     0.5602   -4.3558 -0.000000  0.439792  0.708111 -0.506341  0.220864

                                   1 2py     1 2py     1 2py     1 2py     1 2py  

   1.3   2    -2.4560  -14.9776  1.000000  0.000001 -0.000000 -0.000000 -0.000000

   2.3   0     0.0851   -4.3803  0.000001  0.894790 -0.397750  0.190261 -0.070330

   3.3   0     0.5602   -4.3558 -0.000000  0.439792  0.708111 -0.506341  0.220864

                                   1 3d2-    1 3d2-    1 3d2-    1 3d2- 

   1.4   +    -0.3082   -9.4256  1.000000 -0.000000 -0.000000 -0.000000

   2.4   0     0.4114   -3.9038 -0.005009  0.782744 -0.577944  0.230906

   3.4   0     1.6207   -4.0063 -0.003887  0.607212  0.627748 -0.487076

                                   1 2pz     1 2pz     1 2pz     1 2pz     1 2pz  

   1.5   2    -2.4560  -14.9776  1.000000  0.000001 -0.000000 -0.000000 -0.000000

   2.5   0     0.0851   -4.3803  0.000001  0.894790 -0.397750  0.190261 -0.070330

   3.5   0     0.5602   -4.3558 -0.000000  0.439792  0.708111 -0.506341  0.220864

                                   1 3d1+    1 3d1+    1 3d1+    1 3d1+ 

   1.6   +    -0.3082   -9.4256  1.000000 -0.000000 -0.000000 -0.000000

   2.6   0     0.4114   -3.9038 -0.005009  0.782744 -0.577944  0.230906

   3.6   0     1.6207   -4.0063 -0.003887  0.607212  0.627748 -0.487076

                                   1 3d1-    1 3d1-    1 3d1-    1 3d1- 

   1.7   +    -0.3082   -9.4256  1.000000 -0.000000 -0.000000 -0.000000

   2.7   0     0.4114   -3.9038 -0.005009  0.782744 -0.577944  0.230906

   3.7   0     1.6207   -4.0063 -0.003887  0.607212  0.627748 -0.487076

 HOMO      4.1    -0.308193 =      -8.3864eV
 LUMO      2.2     0.085064 =       2.3147eV
 LUMO-HOMO         0.393258 =      10.7011eV


 **********************************************************************************************************************************
 DATASETS  * FILE   NREC   LENGTH (MB)   RECORD NAMES
              1      20       20.06       500      610      700      900      950      970     1000      129      960     1100   
                                          VAR    BASINP    GEOM    SYMINP    ZMAT    AOBASIS   BASIS     P2S    ABASIS      S 
                                         1400     1410     1420     1200     1210     1080     1600     1650     1700     1380   
                                           T        V       ECP      H0       H01     AOSYM     SMH    MOLCAS    OPER     JKOP   

              2       7       10.31       700     1000      520     4202     4203     5202     2101   
                                         GEOM     BASIS   MCVARS     RHF     MCSCF    MCSCF     RHF  

 PROGRAMS   *        TOTAL       RHF     MULTI     MULTI       POP       RHF       INT
 CPU TIMES  *         1.72      0.12      0.27      0.20      0.00      0.21      0.59
 REAL TIME  *         7.74 SEC
 DISK USED  *       405.09 MB      
 SF USED    *        12.28 MB      
 GA USED    *         0.00 MB       (max)       0.00 MB       (current)
 **********************************************************************************************************************************


 PROGRAM * CI (Multireference internally contracted CI)     Authors: H.-J. Werner, P.J. Knowles, 1987


 Convergence thresholds:  THRVAR = 1.00D-08  THRDEN = 1.00D-06

 Number of optimized states:  1  Roots:   1
 Number of reference states:  1  Roots:   1

 Reference symmetry:                   1   Quartet 
 Number of electrons:                 17
 Maximum number of shells:             3
 Maximum number of spin couplings:    14

 Reference space:        1 conf        1 CSFs
 N elec internal:       19 conf       19 CSFs
 N-1 el internal:       42 conf       78 CSFs
 N-2 el internal:       18 conf       93 CSFs

 Number of electrons in valence space:                      9
 Maximum number of open shell orbitals in reference space:  3
 Maximum number of open shell orbitals in internal spaces:  7


 Number of core orbitals:           4 (   1   1   1   0   1   0   0 )
 Number of closed-shell orbitals:   3 (   3   0   0   0   0   0   0 )
 Number of active  orbitals:        3 (   0   0   0   1   0   1   1 )
 Number of external orbitals:      30 (   9   4   4   3   4   3   3 )

 Molecular orbitals read from record     2101.2  Type=RHF/CANONICAL (state 1.1)

 Coulomb and exchange operators available. No transformation done.

 Number of p-space configurations:   1

 Reference wavefunction optimized for reference space (refopt=1)

 State     Reference Energy 
   1        -103.66504026

 Number of blocks in overlap matrix:    30   Smallest eigenvalue:  0.10D+01
 Number of N-2 electron functions:      30
 Number of N-1 electron functions:      78

 Number of internal configurations:                    1
 Number of singly external configurations:           306
 Number of doubly external configurations:          1839
 Total number of contracted configurations:         2146
 Total number of uncontracted configurations:       6187

 Diagonal Coupling coefficients finished.               Storage:    6173 words, CPU-Time:      0.00 seconds.
 Energy denominators for pairs finished in 1 passes.    Storage:    5661 words, CPU-time:      0.00 seconds.

  ITER. STATE  ROOT     SQ.NORM     CORR.ENERGY   TOTAL ENERGY   ENERGY CHANGE       DEN1      VAR(S)    VAR(P)      TIME
    1     1     1     1.00000000     0.00000000  -103.66504026    -0.00000000    -0.08828703  0.68D-02  0.58D-01     0.04
    2     1     1     1.06548775    -0.08903893  -103.75407918    -0.08903893    -0.00277009  0.11D-02  0.12D-02     0.05
    3     1     1     1.08343879    -0.09246707  -103.75750732    -0.00342814    -0.00016932  0.82D-04  0.65D-04     0.06
    4     1     1     1.08537515    -0.09266079  -103.75770104    -0.00019372    -0.00000858  0.26D-05  0.33D-05     0.06
    5     1     1     1.08524411    -0.09267083  -103.75771108    -0.00001004    -0.00000037  0.11D-06  0.13D-06     0.07
    6     1     1     1.08522045    -0.09267127  -103.75771153    -0.00000044    -0.00000001  0.21D-08  0.40D-08     0.08


 =====================================
 Analysis of CPU times by interactions
 =====================================

       I      S      P

 I   0.0%
 S   0.0%   0.0%
 P  12.5%  25.0%   0.0%

 Initialization:  50.0%
 Other:           12.5%

 Total CPU:        0.1 seconds
 =====================================



 Reference coefficients greater than 0.0500000
 =============================================
 222///           0.9599332

 Coefficients of doubly external configurations greater than 0.0500000
 =====================================================================

 PAIR    I     J   ->   K     L     NP  SYM  REF     COEFFICIENTS

   1    2.1   2.1      2.5   2.5     1   1    1   -0.08690259
   1    2.1   2.1      2.3   2.3     1   1    1   -0.08690222
   1    2.1   2.1      2.2   2.2     1   1    1   -0.08690220



 RESULTS FOR STATE 1.1
 =====================

 Coefficient of reference function:   C(0) = 0.95993321 (fixed)   0.95993321 (relaxed)

 Energy contributions of configuration classes

 CLASS          SQ.NORM        ECORR1        ECORR2
 +++++++++++++++++++++++++++++++++++++++++++++++++++
 Internals    0.00000000    0.00000000    0.00000000
 Singles      0.01024180   -0.00612468   -0.00651827
 Pairs        0.07497866   -0.08654659   -0.08615299
 Total        1.08522045   -0.09267127   -0.09267127
 +++++++++++++++++++++++++++++++++++++++++++++++++++


 Reference energy                    -103.66504026
 Nuclear energy                         0.00000000
 Kinetic energy                        34.75796358
 One electron energy                 -179.83597150
 Two electron energy                   76.07825997
 Virial quotient                       -2.98514932
 Correlation energy                    -0.09267127
 !CI(SD) STATE 1.1 Energy            -103.757711525110

 Properties without orbital relaxation:

 !CI(SD) STATE 1.1 Dipole moment        0.00000000     0.00000000     0.00000000
 Dipole moment /Debye                   0.00000000     0.00000000     0.00000000

 Cluster corrected energies          -103.76560901 (Davidson, fixed reference)
 Cluster corrected energies          -103.76560901 (Davidson, relaxed reference)

 Cluster corrected energies          -103.76312122 (Pople, fixed reference)
 Cluster corrected energies          -103.76312122 (Pople, relaxed reference)


 Natural orbitals
 ================

   Orb     Occ           Coefficients

                         1 1s      1 1s      1 1s      1 1s      1 1s      1 3d0     1 3d2+    1 3d0     1 3d2+    1 3d0  
                         1 3d2+    1 3d0     1 3d2+ 

   1.1    2.0000000    1.000000  0.000000  0.000000  0.000000 -0.000000  0.000000  0.000000  0.000000  0.000000  0.000000
                       0.000000  0.000000  0.000000

   2.1    1.9818745   -0.000000 -0.000007 -0.000001 -0.000000  0.000000  0.999595  0.005296  0.020238  0.000107 -0.010502
                      -0.000056  0.001393  0.000007

   3.1    1.9818744    0.000000  0.000000  0.000000  0.000000 -0.000000 -0.005296  0.999595 -0.000107  0.020238  0.000056
                      -0.010502 -0.000007  0.001393

   4.1    1.9081980   -0.000000  1.000136 -0.014134 -0.006186  0.002540  0.000007 -0.000000  0.000000 -0.000000 -0.000000
                       0.000000  0.000000 -0.000000

   5.1    0.0093717    0.000000 -0.000479  1.000005 -0.001533  0.000870  0.000001 -0.000000 -0.000013  0.000000  0.000001
                      -0.000000  0.000000 -0.000000

   6.1    0.0070607   -0.000000  0.000000 -0.000000  0.000000 -0.000000  0.000112 -0.027095 -0.004136  0.998430  0.000213
                      -0.051319 -0.000041  0.009796

   7.1    0.0070607    0.000000 -0.000000  0.000013 -0.000004  0.000002 -0.027095 -0.000112  0.998430  0.004136 -0.051316
                      -0.000213  0.009794  0.000041

   8.1    0.0004544    0.000000  0.000000  0.000000 -0.000021 -0.000000 -0.000173  0.009388 -0.000953  0.051679 -0.018411
                       0.998300  0.000317 -0.017204

   9.1    0.0004544   -0.000000 -0.000000 -0.000000  0.000385  0.000002  0.009388  0.000173  0.051676  0.000953  0.998301
                       0.018411 -0.017203 -0.000317

  10.1    0.0004436   -0.000000 -0.000690  0.001533  0.999888  0.015197 -0.000003  0.000000 -0.000016  0.000001 -0.000385
                       0.000014  0.000004 -0.000000

  11.1    0.0000423   -0.000000 -0.000000  0.000000 -0.000000 -0.000001 -0.000003 -0.000548 -0.000041 -0.008925  0.000081
                       0.017702  0.004603  0.999792

  12.1    0.0000423   -0.000000 -0.000000 -0.000000  0.000003 -0.000008 -0.000548  0.000003 -0.008923  0.000041  0.017700
                      -0.000082  0.999793 -0.004603

  13.1    0.0000376    0.000000  0.001130 -0.000911 -0.015205  0.999888 -0.000000  0.000000 -0.000002  0.000000  0.000004
                      -0.000000  0.000008  0.000001

                         1 2px     1 2px     1 2px     1 2px     1 2px  

   1.2    2.0000000    1.000000  0.000001 -0.000000 -0.000000 -0.000000

   2.2    0.0358956    0.000001  1.000000  0.000104 -0.000410  0.000204

   3.2    0.0008879   -0.000000 -0.000104  0.999999 -0.000739  0.000707

   4.2    0.0000563    0.000001  0.000410  0.000735  0.999981  0.006042

   5.2    0.0000070   -0.000000 -0.000206 -0.000712 -0.006041  0.999981

                         1 2py     1 2py     1 2py     1 2py     1 2py  

   1.3    2.0000000    1.000000  0.000001 -0.000000 -0.000000 -0.000000

   2.3    0.0358956    0.000001  1.000000  0.000104 -0.000410  0.000204

   3.3    0.0008879   -0.000000 -0.000104  0.999999 -0.000739  0.000707

   4.3    0.0000563    0.000001  0.000410  0.000735  0.999981  0.006042

   5.3    0.0000070   -0.000000 -0.000206 -0.000712 -0.006041  0.999981

                         1 3d2-    1 3d2-    1 3d2-    1 3d2- 

   1.4    0.9943594    1.000020 -0.006264  0.000192  0.000523

   2.4    0.0029522   -0.000068  1.000000  0.000625 -0.000258

   3.4    0.0001846    0.000065 -0.000624  0.999979  0.006385

   4.4    0.0000184   -0.000106  0.000263 -0.006384  0.999980

                         1 2pz     1 2pz     1 2pz     1 2pz     1 2pz  

   1.5    2.0000000    1.000000  0.000001 -0.000000 -0.000000 -0.000000

   2.5    0.0358963    0.000001  1.000000  0.000102 -0.000411  0.000204

   3.5    0.0008879   -0.000000 -0.000103  0.999999 -0.000736  0.000705

   4.5    0.0000563    0.000001  0.000410  0.000732  0.999981  0.006034

   5.5    0.0000070   -0.000000 -0.000206 -0.000710 -0.006033  0.999982

                         1 3d1+    1 3d1+    1 3d1+    1 3d1+ 

   1.6    0.9943594    1.000020 -0.006264  0.000192  0.000523

   2.6    0.0029523   -0.000068  1.000000  0.000620 -0.000257

   3.6    0.0001846    0.000065 -0.000619  0.999979  0.006381

   4.6    0.0000184   -0.000106  0.000261 -0.006381  0.999980

                         1 3d1-    1 3d1-    1 3d1-    1 3d1- 

   1.7    0.9943594    1.000020 -0.006264  0.000192  0.000523

   2.7    0.0029523   -0.000068  1.000000  0.000620 -0.000257

   3.7    0.0001846    0.000065 -0.000619  0.999979  0.006381

   4.7    0.0000184   -0.000106  0.000261 -0.006381  0.999980

 Electronic charge:   17.000000


 **********************************************************************************************************************************
 DATASETS  * FILE   NREC   LENGTH (MB)   RECORD NAMES
              1      20       20.06       500      610      700      900      950      970     1000      129      960     1100   
                                          VAR    BASINP    GEOM    SYMINP    ZMAT    AOBASIS   BASIS     P2S    ABASIS      S 
                                         1400     1410     1420     1200     1210     1080     1600     1650     1700     1380   
                                           T        V       ECP      H0       H01     AOSYM     SMH    MOLCAS    OPER     JKOP   

              2       7       10.31       700     1000      520     4202     4203     5202     2101   
                                         GEOM     BASIS   MCVARS     RHF     MCSCF    MCSCF     RHF  

 PROGRAMS   *        TOTAL        CI       RHF     MULTI     MULTI       POP       RHF       INT
 CPU TIMES  *         1.92      0.20      0.12      0.27      0.20      0.00      0.21      0.59
 REAL TIME  *         8.33 SEC
 DISK USED  *       405.09 MB      
 SF USED    *        12.28 MB      
 GA USED    *         0.00 MB       (max)       0.00 MB       (current)
 **********************************************************************************************************************************

 CI/USERDEF energy=   -103.757711525110

        CI              RHF-SCF         MULTI           MULTI           RHF-SCF 
   -103.75771153   -103.66504026   -103.60840003   -103.60839527   -103.66598825
 **********************************************************************************************************************************
 Molpro calculation terminated
 Variable memory released
