
 Primary working directories    : /global/cscratch1/sd/bkincaid
 Secondary working directories  : /global/cscratch1/sd/bkincaid
 Wavefunction directory         : /global/homes/b/bkincaid/wfu/
 Main file repository           : /global/cscratch1/sd/bkincaid/

 SHA1      : 19cd028119e0e09f93f0674bd8af7968d9b3eff6
 NAME      : 2015.1.36
 ARCHNAME  : linux/x86_64
 FC        : /opt/cray/pe/craype/2.5.14/bin/ftn
 BLASLIB   : -L/opt/intel/compilers_and_libraries_2018.1.163/linux/mkl/lib/intel64 -Wl,-_start-group -lmkl_intel_ilp64 -lmkl_intel_thread -lmkl_core -Wl,-_end-group -liomp5
 id        : lbl

 Nodes     nprocs
 nid00777    23
 Number of processes for MPI-2 version of Molpro:   nprocs(total)=   24   nprocs(compute)=   23   nprocs(helper)=    1

 Using customized tuning parameters: mindgm=7; mindgv=16; mindgc=1; mindgr=1; noblas=0; minvec=7
 default implementation of scratch files=sf  

 ***,Calculation for Ag atom, singlet and triplet
 memory,512,m
 geometry={
 1
 Pd
 Pd  0.0 0.0 0.0
 }
 
 basis={
 Including file /global/u1/b/bkincaid/molpro/Pd/atoms/ae/nr/basis/5zdebug3.basis
 }
 
 Including file /global/u1/b/bkincaid/molpro/Pd/atoms/ae/nr/basis/states.proc
 
 do i=1,14
     if (i.eq.1) then
         Idten
     else if (i.eq.2) then
         EAs2d9
     else if (i.eq.3) then
         EAs1dten
     else if (i.eq.4) then
         Is1d9
     else if (i.eq.5) then
         Is2d8
     else if (i.eq.6) then
         IId9
     else if (i.eq.7) then
         IIs1d8
     else if (i.eq.8) then
         IIId8
     else if (i.eq.9) then
         IVd7
     else if (i.eq.10) then
         Vd6
     else if (i.eq.11) then
         VId5
     else if (i.eq.12) then
         XIKr
     else if (i.eq.13) then
         XIVp3
     else if (i.eq.14) then
         XVIIs2
     endif
     scf(i)=energy
                                                                                 !_CC_NORM_MAX=2.0
                                                                                 !{rccsd(t),maxit=100;core}
                                                                                 !ccsd(i)=energy
 enddo
 
 table,scf                                                                       !,ccsd
 type,csv
 save

 Variables initialized (889), CPU time= 0.01 sec
 Commands  initialized (702), CPU time= 0.01 sec, 572 directives.
 Default parameters read. Elapsed time= 0.19 sec

 Checking input...
 Passed
1


                                         ***  PROGRAM SYSTEM MOLPRO  ***
                                       Copyright, TTI GmbH Stuttgart, 2015
                                    Version 2015.1 linked Dec 29 2018 15:55:43


 **********************************************************************************************************************************
 LABEL *   Calculation for Ag atom, singlet and triplet                                  
  64 bit mpp version                                                                     DATE: 10-Dec-20          TIME: 14:07:22  
 **********************************************************************************************************************************

 SHA1:             19cd028119e0e09f93f0674bd8af7968d9b3eff6
 **********************************************************************************************************************************

Geometry recognized as XYZ


 Variable memory set to  512000000 words,  buffer space   230000 words

 SETTING BASIS          =    USERDEF

 DO I                   =         1.00000000   

 Running procedure=IDTEN


 Recomputing integrals since basis changed


 Using spherical harmonics



 PROGRAM * SEWARD (Integral evaluation for generally contracted gaussian basis sets)     Author: Roland Lindh, 1990

 Geometry written to block  1 of record 700

 Orientation using atomic masses  
 Molecule type: Atom
 Symmetry elements: X,Y,Z
 Rotational constants:       0.0000000      0.0000000      0.0000000 GHz  (calculated with average atomic masses)

 Point group  D2h 



 ATOMIC COORDINATES

 NR  ATOM    CHARGE       X              Y              Z

   1  PD     46.00    0.000000000    0.000000000    0.000000000

 NUCLEAR CHARGE:                   46
 NUMBER OF PRIMITIVE AOS:         429
 NUMBER OF SYMMETRY AOS:          313
 NUMBER OF CONTRACTIONS:          313   (  83Ag  +  42B3u +  42B2u +  31B1g +  42B1u +  31B2g +  31B3g +  11Au  )
 NUMBER OF CORE ORBITALS:          18   (   6Ag  +   3B3u +   3B2u +   1B1g +   3B1u +   1B2g +   1B3g +   0Au  )
 NUMBER OF VALENCE ORBITALS:        6   (   3Ag  +   0B3u +   0B2u +   1B1g +   0B1u +   1B2g +   1B3g +   0Au  )


 NUCLEAR REPULSION ENERGY    0.00000000

 EXTRA SYMMETRY OF AOS IN SYMMETRY 1:   1 1 1 1 1 1 1 1 1 1   1 1 1 1 1 1 1 1 1 1   1 1 1 1 1 1 1 1 1 2   3 2 3 2 3 2 3 2 3 2
                                        3 2 3 2 3 2 3 2 3 2   3 2 3 2 3 2 3 2 3 2   3 2 3 4 5 6 4 5 6 4   5 6 4 5 6 7 8 910 7
                                        8 910
 EXTRA SYMMETRY OF AOS IN SYMMETRY 2:   1 1 1 1 1 1 1 1 1 1   1 1 1 1 1 1 1 1 1 1   1 1 1 2 3 2 3 2 3 2   3 2 3 4 5 6 4 5 6 4
                                        5 6
 EXTRA SYMMETRY OF AOS IN SYMMETRY 3:   1 1 1 1 1 1 1 1 1 1   1 1 1 1 1 1 1 1 1 1   1 1 1 2 3 2 3 2 3 2   3 2 3 4 5 6 4 5 6 4
                                        5 6
 EXTRA SYMMETRY OF AOS IN SYMMETRY 4:   1 1 1 1 1 1 1 1 1 1   1 1 1 1 1 1 1 2 3 2   3 2 3 2 3 4 5 6 4 5   6
 EXTRA SYMMETRY OF AOS IN SYMMETRY 5:   1 1 1 1 1 1 1 1 1 1   1 1 1 1 1 1 1 1 1 1   1 1 1 2 3 2 3 2 3 2   3 2 3 4 5 6 4 5 6 4
                                        5 6
 EXTRA SYMMETRY OF AOS IN SYMMETRY 6:   1 1 1 1 1 1 1 1 1 1   1 1 1 1 1 1 1 2 3 2   3 2 3 2 3 4 5 6 4 5   6
 EXTRA SYMMETRY OF AOS IN SYMMETRY 7:   1 1 1 1 1 1 1 1 1 1   1 1 1 1 1 1 1 2 3 2   3 2 3 2 3 4 5 6 4 5   6
 EXTRA SYMMETRY OF AOS IN SYMMETRY 8:   1 1 1 1 1 2 3 2 3 2   3

 Eigenvalues of metric

         1 0.199E-05 0.951E-05 0.951E-05 0.294E-04 0.121E-03 0.307E-03 0.307E-03 0.364E-03
         2 0.984E-06 0.472E-03 0.163E-02 0.409E-02 0.952E-02 0.187E-01 0.302E-01 0.519E-01
         3 0.984E-06 0.472E-03 0.163E-02 0.409E-02 0.952E-02 0.187E-01 0.302E-01 0.519E-01
         4 0.951E-05 0.307E-03 0.302E-02 0.107E-01 0.287E-01 0.531E-01 0.105E+00 0.153E+00
         5 0.984E-06 0.472E-03 0.163E-02 0.409E-02 0.952E-02 0.187E-01 0.302E-01 0.519E-01
         6 0.951E-05 0.307E-03 0.302E-02 0.107E-01 0.287E-01 0.531E-01 0.105E+00 0.153E+00
         7 0.951E-05 0.307E-03 0.302E-02 0.107E-01 0.287E-01 0.531E-01 0.105E+00 0.153E+00
         8 0.127E+00 0.300E+00 0.300E+00 0.340E+00 0.792E+00 0.909E+00 0.909E+00 0.150E+01


 Contracted 2-electron integrals neglected if value below      1.0D-13
 AO integral compression algorithm  1   Integral accuracy      1.0D-13

     703.070 MB (compressed) written to integral file ( 38.6%)

     Node minimum: 9.175 MB, node maximum: 55.050 MB


 NUMBER OF SORTED TWO-ELECTRON INTEGRALS:    6728960.     BUFFER LENGTH:  32768
 NUMBER OF SEGMENTS:   1  SEGMENT LENGTH:    6728960      RECORD LENGTH: 524288

 Memory used in sort:       7.29 MW

 SORT1 READ   227623651. AND WROTE     3197070. INTEGRALS IN     10 RECORDS. CPU TIME:     9.86 SEC, REAL TIME:    11.59 SEC
 SORT2 READ    75008247. AND WROTE   155396568. INTEGRALS IN   2553 RECORDS. CPU TIME:     0.91 SEC, REAL TIME:     1.11 SEC

 Node minimum:     6630452.  Node maximum:     6850849. integrals

 OPERATOR DM      FOR CENTER  0  COORDINATES:    0.000000    0.000000    0.000000


 **********************************************************************************************************************************
 DATASETS  * FILE   NREC   LENGTH (MB)   RECORD NAMES
              1      18       20.56       500      610      700      900      950      970     1000      129      960     1100   
                                          VAR    BASINP    GEOM    SYMINP    ZMAT    AOBASIS   BASIS     P2S    ABASIS      S 
                                         1400     1410     1200     1210     1080     1600     1650     1700   
                                           T        V       H0       H01     AOSYM     SMH    MOLCAS    OPER   

 PROGRAMS   *        TOTAL       INT
 CPU TIMES  *        32.77     32.53
 REAL TIME  *        37.87 SEC
 DISK USED  *         1.64 GB      
 GA USED    *         0.00 MB       (max)       0.00 MB       (current)
 **********************************************************************************************************************************


 PROGRAM * RHF-SCF (CLOSED SHELL)       Authors: W. Meyer, H.-J. Werner


 NUMBER OF ELECTRONS:      23+   23-    SPACE SYMMETRY=1    SPIN SYMMETRY: Singlet 
 CONVERGENCE THRESHOLDS:    1.00E-05 (Density)    1.00E-07 (Energy)
 MAX. NUMBER OF ITERATIONS:       60
 INTERPOLATION TYPE:            DIIS
 INTERPOLATION STEPS:              2 (START)      1 (STEP)
 LEVEL SHIFTS:                  0.00 (CLOSED)  0.00 (OPEN) 

 Number of closed-shell orbitals:   23 (   8   3   3   2   3   2   2   0 )


 
 Extra symmetries of mos in symmetry 1:   1   1   1   1   3   2   3   2
 Orbital guess generated from atomic densities. Full valence occupancy:    9   3   3   2   3   2   2   0


 Molecular orbital dump at record        4202.2

 ITERATION    DDIFF          GRAD             ENERGY        2-EL.EN.            DIPOLE MOMENTS         DIIS   ORB.
    1      0.000D+00      0.000D+00     -4917.93027232   3280.163532    0.00000    0.00000    0.00000    0    start
    2      0.000D+00      0.117D+00     -4930.40509680   4090.600603    0.00000    0.00000    0.00000    1    diag
    3      0.412D+00      0.151D+00     -4936.24557382   3923.683631    0.00000    0.00000    0.00000    2    diag
    4      0.206D-01      0.525D-01     -4937.89577198   3787.137223    0.00000    0.00000    0.00000    3    diag
    5      0.205D-01      0.724D-02     -4937.91816339   3785.809955    0.00000    0.00000    0.00000    4    diag
    6      0.415D-02      0.264D-02     -4937.92038249   3788.439998    0.00000    0.00000    0.00000    5    diag
    7      0.897D-03      0.956D-03     -4937.92082359   3790.846767    0.00000    0.00000    0.00000    6    diag
    8      0.373D-03      0.728D-04     -4937.92082969   3790.684889    0.00000    0.00000    0.00000    7    diag
    9      0.661D-04      0.180D-04     -4937.92083149   3790.709580    0.00000    0.00000    0.00000    8    diag
   10      0.201D-04      0.638D-05     -4937.92083190   3790.714392    0.00000    0.00000    0.00000    9    orth
   11      0.112D-04      0.324D-05     -4937.92083204   3790.712677    0.00000    0.00000    0.00000    9    diag
   12      0.869D-05      0.109D-05     -4937.92083206   3790.712561    0.00000    0.00000    0.00000    9    diag
   13      0.338D-05      0.118D-06     -4937.92083206   3790.712522    0.00000    0.00000    0.00000    0    orth

 Final occupancy:   8   3   3   2   3   2   2   0

 !RHF STATE 1.1 Energy              -4937.920832058641
 Nuclear energy                         0.00000000
 One-electron energy                -6833.27709291
 Two-electron energy                 1895.35626085
 Virial quotient                       -0.99999990
 !RHF STATE 1.1 Dipole moment           0.00000000     0.00000000     0.00000000
 Dipole moment /Debye                   0.00000000     0.00000000     0.00000000

 ELECTRON ORBITALS
 =================


   Orb  Occ    Energy  Couls-En    Coefficients

                                   1 1s      1 1s      1 1s      1 1s      1 1s      1 1s      1 1s      1 1s      1 1s      1 1s   
                                   1 1s      1 1s      1 1s      1 1s      1 1s      1 1s      1 1s      1 1s      1 1s      1 1s   
                                   1 1s      1 1s      1 1s      1 1s      1 1s      1 1s      1 1s      1 1s      1 1s      1 3d0  
                                   1 3d2+    1 3d0     1 3d2+    1 3d0     1 3d2+    1 3d0     1 3d2+    1 3d0     1 3d2+    1 3d0  
                                   1 3d2+    1 3d0     1 3d2+    1 3d0     1 3d2+    1 3d0     1 3d2+    1 3d0     1 3d2+    1 3d0  
                                   1 3d2+    1 3d0     1 3d2+    1 3d0     1 3d2+    1 3d0     1 3d2+    1 3d0     1 3d2+    1 3d0  
                                   1 3d2+    1 3d0     1 3d2+    1 5g0     1 5g4+    1 5g2+    1 5g0     1 5g4+    1 5g2+    1 5g0  
                                   1 5g4+    1 5g2+    1 5g0     1 5g4+    1 5g2+    1 7i6+    1 7i4+    1 7i2+    1 7i0     1 7i6+ 
                                   1 7i4+    1 7i2+    1 7i0  

   1.1   2  -873.3159-1931.1422  0.000000  0.000002  0.000012  0.000054  0.000204  0.000679  0.002058  0.005839  0.015733  0.040060
                                 0.094253  0.193475  0.311508  0.318946  0.147429  0.016838  0.001488 -0.000874  0.000850 -0.001598
                                -0.001535  0.000766  0.000100 -0.000011  0.000008 -0.000003  0.002325 -0.000549  0.000001 -0.000000
                                -0.000000 -0.000000 -0.000000 -0.000000 -0.000000 -0.000000  0.000000 -0.000000  0.000000  0.000000
                                -0.000000  0.000000 -0.000000  0.000000  0.000000  0.000000  0.000000  0.000000  0.000000  0.000000
                                 0.000000 -0.000000 -0.000000 -0.000000 -0.000000 -0.000000 -0.000000 -0.000000 -0.000000 -0.000000
                                -0.000000  0.000000  0.000000 -0.000000  0.000000 -0.000000  0.000000 -0.000000  0.000000 -0.000000
                                 0.000000 -0.000000  0.000000  0.000000  0.000000 -0.000000 -0.000000  0.000000  0.000000  0.000000
                                 0.000000 -0.000000  0.000000

   2.1   2  -127.9666 -390.0758 -0.000000 -0.000001 -0.000004 -0.000017 -0.000066 -0.000218 -0.000663 -0.001889 -0.005144 -0.013360
                                -0.032888 -0.073847 -0.142649 -0.200115 -0.110000  0.256503  0.562625  0.327118  0.048980  0.003169
                                 0.000940 -0.000562 -0.000084  0.000003 -0.000002  0.000001 -0.001433  0.000295 -0.000000 -0.000000
                                -0.000000 -0.000000  0.000000 -0.000000 -0.000000 -0.000000  0.000000 -0.000000 -0.000000 -0.000000
                                 0.000000  0.000000 -0.000000 -0.000000  0.000000  0.000000 -0.000000  0.000000 -0.000000  0.000000
                                -0.000000 -0.000000  0.000000 -0.000000 -0.000000 -0.000000  0.000000 -0.000000  0.000000 -0.000000
                                 0.000000  0.000000 -0.000000  0.000000 -0.000000 -0.000000 -0.000000  0.000000  0.000000  0.000000
                                -0.000000 -0.000000 -0.000000  0.000000  0.000000 -0.000000  0.000000  0.000000 -0.000000 -0.000000
                                -0.000000  0.000000 -0.000000

   3.1   2   -24.2091 -133.5343  0.000000  0.000000  0.000002  0.000007  0.000028  0.000094  0.000286  0.000815  0.002225  0.005787
                                 0.014358  0.032592  0.064792  0.095229  0.057639 -0.162876 -0.485552 -0.376058  0.360595  0.816731
                                 0.276686 -0.039601 -0.005860  0.000980 -0.000654  0.000297 -0.054193  0.037655 -0.000082 -0.000000
                                 0.000000 -0.000000 -0.000000  0.000000  0.000000  0.000000 -0.000000  0.000000  0.000000  0.000000
                                -0.000000  0.000000  0.000000 -0.000000 -0.000000 -0.000000  0.000000 -0.000000  0.000000 -0.000000
                                 0.000000  0.000000 -0.000000 -0.000000  0.000000  0.000000 -0.000000  0.000000 -0.000000  0.000000
                                -0.000000 -0.000000  0.000000  0.000000 -0.000000 -0.000000 -0.000000  0.000000  0.000000  0.000000
                                -0.000000 -0.000000 -0.000000  0.000000  0.000000 -0.000000 -0.000000 -0.000000  0.000000  0.000000
                                 0.000000 -0.000000  0.000000

   4.1   2    -3.5873  -52.9480 -0.000000 -0.000000 -0.000001 -0.000003 -0.000012 -0.000039 -0.000118 -0.000335 -0.000914 -0.002377
                                -0.005908 -0.013436 -0.026869 -0.039829 -0.024668  0.072205  0.228807  0.191108 -0.217182 -0.754531
                                -0.165653  0.841110  0.599990  0.048918 -0.022264  0.009286 -0.035960 -0.067354 -0.002487 -0.000000
                                -0.000000 -0.000000  0.000000 -0.000000  0.000000 -0.000000  0.000000 -0.000000  0.000000 -0.000000
                                 0.000000 -0.000000  0.000000 -0.000000  0.000000  0.000000 -0.000000  0.000000 -0.000000  0.000000
                                -0.000000  0.000000  0.000000 -0.000000  0.000000 -0.000000 -0.000000 -0.000000  0.000000 -0.000000
                                 0.000000 -0.000000  0.000000 -0.000000 -0.000000  0.000000 -0.000000  0.000000 -0.000000 -0.000000
                                -0.000000  0.000000  0.000000  0.000000 -0.000000 -0.000000  0.000000  0.000000 -0.000000  0.000000
                                -0.000000 -0.000000  0.000000

   5.1   2   -13.3634 -117.5115 -0.000000  0.000000  0.000000 -0.000000  0.000000 -0.000000 -0.000000  0.000000 -0.000000  0.000000
                                -0.000000  0.000000 -0.000000  0.000000 -0.000000  0.000000 -0.000000  0.000000 -0.000000  0.000000
                                 0.000000 -0.000000 -0.000000 -0.000000  0.000000 -0.000000 -0.000000  0.000000  0.000000 -0.000000
                                 0.000092 -0.000000  0.001079 -0.000002  0.007217 -0.000008  0.031002 -0.000026  0.096122 -0.000059
                                 0.216395 -0.000091  0.333871 -0.000092  0.339067 -0.000049  0.181543 -0.000012  0.044190 -0.000001
                                 0.004836  0.000000 -0.000077 -0.000000  0.000062  0.000000 -0.000017  0.000002 -0.006747  0.000001
                                -0.005011 -0.000000  0.000005  0.000000  0.000000 -0.000000 -0.000000 -0.000000  0.000000  0.000000
                                 0.000000 -0.000000 -0.000000 -0.000000  0.000000  0.000000 -0.000000  0.000000  0.000000  0.000000
                                 0.000000 -0.000000  0.000000

   6.1   2   -13.3634 -117.5115  0.000000  0.000000  0.000000  0.000000  0.000000  0.000000  0.000000  0.000000  0.000000  0.000000
                                 0.000000  0.000000  0.000000  0.000000  0.000000 -0.000000 -0.000000 -0.000000  0.000000  0.000000
                                -0.000000 -0.000000  0.000000  0.000000 -0.000000  0.000000 -0.000000  0.000000 -0.000000  0.000092
                                 0.000000  0.001079  0.000000  0.007217  0.000002  0.031002  0.000008  0.096122  0.000026  0.216395
                                 0.000059  0.333871  0.000091  0.339067  0.000092  0.181543  0.000049  0.044190  0.000012  0.004836
                                 0.000001 -0.000077 -0.000000  0.000062  0.000000 -0.000017 -0.000000 -0.006747 -0.000002 -0.005011
                                -0.000001  0.000005  0.000000 -0.000000  0.000000  0.000000  0.000000  0.000000 -0.000000 -0.000000
                                -0.000000  0.000000  0.000000  0.000000 -0.000000 -0.000000  0.000000 -0.000000  0.000000  0.000000
                                -0.000000 -0.000000 -0.000000

   7.1   2    -0.3360  -34.9588  0.000000  0.000000  0.000000  0.000000  0.000000  0.000000  0.000000  0.000000  0.000000  0.000000
                                 0.000000  0.000000  0.000000  0.000000  0.000000 -0.000000 -0.000000 -0.000000  0.000000  0.000000
                                 0.000000 -0.000000 -0.000000  0.000000  0.000000  0.000000 -0.000000  0.000000 -0.000000  0.000000
                                -0.000027  0.000001 -0.000323  0.000004 -0.002168  0.000017 -0.009382  0.000055 -0.029419  0.000124
                                -0.067010  0.000186 -0.100090  0.000167 -0.089720 -0.000073  0.039521 -0.000459  0.247349 -0.000673
                                 0.362402 -0.000605  0.326106 -0.000394  0.212437 -0.000134  0.072298 -0.000015  0.008331 -0.000011
                                 0.006118 -0.000004  0.002204  0.000000  0.000000 -0.000000  0.000000 -0.000000 -0.000000 -0.000000
                                -0.000000  0.000000 -0.000000 -0.000000  0.000000 -0.000000 -0.000000  0.000000 -0.000000 -0.000000
                                 0.000000 -0.000000  0.000000

   8.1   2    -0.3360  -34.9588 -0.000000 -0.000000 -0.000000 -0.000000 -0.000000 -0.000000 -0.000000 -0.000000 -0.000000 -0.000000
                                -0.000000 -0.000000 -0.000000 -0.000000 -0.000000  0.000000  0.000000  0.000000 -0.000000 -0.000002
                                -0.000001  0.000003  0.000003 -0.000002 -0.000005 -0.000001  0.000000 -0.000001  0.000000 -0.000027
                                -0.000000 -0.000323 -0.000001 -0.002168 -0.000004 -0.009382 -0.000017 -0.029419 -0.000055 -0.067010
                                -0.000124 -0.100090 -0.000186 -0.089720 -0.000167  0.039521  0.000073  0.247349  0.000459  0.362402
                                 0.000673  0.326106  0.000605  0.212437  0.000394  0.072297  0.000134  0.008331  0.000015  0.006118
                                 0.000011  0.002203  0.000004 -0.000000 -0.000000  0.000000 -0.000000  0.000000 -0.000000  0.000000
                                -0.000000  0.000000  0.000000  0.000000 -0.000000 -0.000000  0.000000  0.000000  0.000000  0.000000
                                -0.000000 -0.000000 -0.000000

   9.1   0     0.0117   -7.3287  0.000000  0.000000  0.000000  0.000000  0.000001  0.000003  0.000009  0.000025  0.000071  0.000177
                                 0.000459  0.000998  0.002111  0.002877  0.002293 -0.006551 -0.015349 -0.020894  0.033505 -0.010358
                                -0.205772  0.242079  0.064904 -0.190204  0.542577 -0.885840  0.206902 -0.368529  1.502874 -0.000000
                                 0.000000 -0.000000  0.000000 -0.000000  0.000000 -0.000000  0.000000 -0.000000  0.000000 -0.000000
                                 0.000000 -0.000000  0.000000 -0.000000  0.000000  0.000000 -0.000000  0.000001 -0.000000  0.000002
                                -0.000000  0.000001  0.000000  0.000001 -0.000000  0.000000 -0.000000 -0.000000  0.000000 -0.000000
                                 0.000000  0.000001 -0.000000  0.000000 -0.000000  0.000000 -0.000000  0.000000 -0.000000 -0.000000
                                -0.000000  0.000000  0.000000  0.000000 -0.000000 -0.000000  0.000000 -0.000000 -0.000000  0.000000
                                -0.000000  0.000000  0.000000

  10.1   0     0.0660   -8.8280 -0.000000 -0.000000 -0.000000 -0.000000 -0.000001 -0.000005 -0.000014 -0.000043 -0.000110 -0.000309
                                -0.000704 -0.001764 -0.003129 -0.005557 -0.001649  0.005550  0.037710  0.003610  0.028965 -0.381271
                                -0.811243  1.390953  0.746644 -0.639790  1.608272 -3.687431  0.731319 -1.429011  2.272620  0.000000
                                 0.000000  0.000000 -0.000000  0.000000 -0.000000  0.000000 -0.000000  0.000000 -0.000000  0.000000
                                -0.000000  0.000000 -0.000000  0.000000 -0.000000 -0.000000  0.000000 -0.000001  0.000000 -0.000002
                                 0.000000 -0.000001 -0.000000 -0.000001  0.000000 -0.000000 -0.000000  0.000000 -0.000000  0.000000
                                -0.000000 -0.000002  0.000000  0.000000  0.000000 -0.000000 -0.000000  0.000000 -0.000000 -0.000000
                                 0.000000 -0.000000 -0.000000 -0.000000  0.000000  0.000000 -0.000000  0.000000 -0.000000 -0.000000
                                 0.000000 -0.000000  0.000000

                                   1 2px     1 2px     1 2px     1 2px     1 2px     1 2px     1 2px     1 2px     1 2px     1 2px  
                                   1 2px     1 2px     1 2px     1 2px     1 2px     1 2px     1 2px     1 2px     1 2px     1 2px  
                                   1 2px     1 2px     1 2px     1 4f1+    1 4f3+    1 4f1+    1 4f3+    1 4f1+    1 4f3+    1 4f1+ 
                                   1 4f3+    1 4f1+    1 4f3+    1 6h1+    1 6h3+    1 6h5+    1 6h1+    1 6h3+    1 6h5+    1 6h1+ 
                                   1 6h3+    1 6h5+ 

   1.2   2  -118.5311 -380.0209  0.000000  0.000002  0.000027  0.000211  0.001223  0.005571  0.020625  0.063278  0.156043  0.289843
                                 0.356348  0.227538  0.056648  0.004857 -0.005663 -0.000427 -0.000052  0.000008 -0.000006  0.000003
                                 0.005904  0.000061 -0.000001 -0.000000  0.000000 -0.000000 -0.000000 -0.000000  0.000000  0.000000
                                -0.000000  0.000000  0.000000  0.000000 -0.000000 -0.000000 -0.000000 -0.000000  0.000000  0.000000
                                -0.000000 -0.000000

   2.2   2   -20.3743 -127.7348 -0.000000 -0.000001 -0.000012 -0.000094 -0.000548 -0.002509 -0.009398 -0.029549 -0.075908 -0.149442
                                -0.192494 -0.053397  0.280077  0.502440  0.370556  0.052920  0.000738  0.000016  0.000038 -0.000014
                                -0.071108  0.002081  0.000004 -0.000000  0.000000  0.000000 -0.000000  0.000000  0.000000  0.000000
                                -0.000000 -0.000000  0.000000  0.000000 -0.000000 -0.000000 -0.000000  0.000000  0.000000  0.000000
                                -0.000000 -0.000000

   3.2   2    -2.3301  -48.2006  0.000000  0.000000  0.000005  0.000036  0.000212  0.000969  0.003648  0.011483  0.029826  0.059119
                                 0.077569  0.012598 -0.146531 -0.304449 -0.112135  0.343376  0.308991  0.047227 -0.005349  0.002729
                                -0.043267  0.532465 -0.000835  0.000000 -0.000000  0.000000  0.000000  0.000000  0.000000 -0.000000
                                -0.000000 -0.000000  0.000000  0.000000 -0.000000 -0.000000 -0.000000  0.000000  0.000000  0.000000
                                -0.000000 -0.000000

   4.2   0     0.0274   -4.7534 -0.000000 -0.000000 -0.000000 -0.000001 -0.000004 -0.000023 -0.000069 -0.000275 -0.000550 -0.001506
                                -0.001051 -0.001785  0.007250 -0.006389  0.307080  0.034853  0.033711 -0.075727  0.219313 -0.534559
                                -0.319981 -0.050334  1.313036 -0.000000  0.000000 -0.000000  0.000000 -0.000000  0.000000 -0.000000
                                 0.000000  0.000000 -0.000000 -0.000000  0.000000 -0.000000  0.000000 -0.000000  0.000000  0.000000
                                -0.000000 -0.000000

   5.2   0     0.0992   -7.6538  0.000000  0.000000  0.000000  0.000002  0.000018  0.000068  0.000308  0.000807  0.002564  0.003922
                                 0.007763 -0.003410 -0.000405 -0.061941  0.848966  0.156433  0.150969 -0.253244  0.597370 -2.051027
                                -0.906467 -0.052007  1.164594  0.000000 -0.000000  0.000000 -0.000000  0.000000  0.000000  0.000000
                                -0.000000 -0.000000  0.000000  0.000000 -0.000000 -0.000000 -0.000000  0.000000  0.000000 -0.000000
                                -0.000000 -0.000000

                                   1 2py     1 2py     1 2py     1 2py     1 2py     1 2py     1 2py     1 2py     1 2py     1 2py  
                                   1 2py     1 2py     1 2py     1 2py     1 2py     1 2py     1 2py     1 2py     1 2py     1 2py  
                                   1 2py     1 2py     1 2py     1 4f1-    1 4f3-    1 4f1-    1 4f3-    1 4f1-    1 4f3-    1 4f1- 
                                   1 4f3-    1 4f1-    1 4f3-    1 6h1-    1 6h3-    1 6h5-    1 6h1-    1 6h3-    1 6h5-    1 6h1- 
                                   1 6h3-    1 6h5- 

   1.3   2  -118.5311 -380.0209  0.000000  0.000002  0.000027  0.000211  0.001223  0.005571  0.020625  0.063278  0.156043  0.289843
                                 0.356348  0.227538  0.056648  0.004857 -0.005663 -0.000427 -0.000052  0.000008 -0.000006  0.000003
                                 0.005904  0.000061 -0.000001 -0.000000  0.000000 -0.000000 -0.000000 -0.000000  0.000000  0.000000
                                -0.000000  0.000000  0.000000  0.000000 -0.000000 -0.000000 -0.000000 -0.000000  0.000000  0.000000
                                -0.000000 -0.000000

   2.3   2   -20.3743 -127.7348 -0.000000 -0.000001 -0.000012 -0.000094 -0.000548 -0.002509 -0.009398 -0.029549 -0.075908 -0.149442
                                -0.192494 -0.053397  0.280077  0.502440  0.370556  0.052920  0.000738  0.000016  0.000038 -0.000014
                                -0.071108  0.002081  0.000004 -0.000000  0.000000  0.000000 -0.000000  0.000000 -0.000000  0.000000
                                -0.000000 -0.000000  0.000000  0.000000 -0.000000 -0.000000 -0.000000  0.000000  0.000000  0.000000
                                -0.000000 -0.000000

   3.3   2    -2.3301  -48.2006  0.000000  0.000000  0.000005  0.000036  0.000212  0.000969  0.003648  0.011483  0.029826  0.059119
                                 0.077569  0.012598 -0.146531 -0.304449 -0.112135  0.343376  0.308991  0.047227 -0.005349  0.002729
                                -0.043267  0.532465 -0.000835  0.000000 -0.000000  0.000000  0.000000  0.000000 -0.000000 -0.000000
                                -0.000000 -0.000000  0.000000  0.000000 -0.000000  0.000000 -0.000000  0.000000  0.000000  0.000000
                                -0.000000 -0.000000

   4.3   0     0.0274   -4.7534 -0.000000 -0.000000 -0.000000 -0.000001 -0.000004 -0.000023 -0.000069 -0.000275 -0.000550 -0.001506
                                -0.001051 -0.001785  0.007250 -0.006389  0.307080  0.034853  0.033711 -0.075727  0.219313 -0.534559
                                -0.319981 -0.050334  1.313036 -0.000000  0.000000 -0.000000  0.000000 -0.000000  0.000000 -0.000000
                                 0.000000  0.000000 -0.000000 -0.000000  0.000000 -0.000000  0.000000 -0.000000  0.000000  0.000000
                                -0.000000 -0.000000

   5.3   0     0.0992   -7.6538  0.000000  0.000000  0.000000  0.000002  0.000018  0.000068  0.000308  0.000807  0.002564  0.003922
                                 0.007763 -0.003410 -0.000405 -0.061941  0.848966  0.156433  0.150969 -0.253244  0.597370 -2.051027
                                -0.906467 -0.052007  1.164594  0.000000  0.000000  0.000000 -0.000000  0.000000  0.000000  0.000000
                                -0.000000 -0.000000  0.000000  0.000000 -0.000000 -0.000000 -0.000000  0.000000  0.000000 -0.000000
                                -0.000000 -0.000000

                                   1 3d2-    1 3d2-    1 3d2-    1 3d2-    1 3d2-    1 3d2-    1 3d2-    1 3d2-    1 3d2-    1 3d2- 
                                   1 3d2-    1 3d2-    1 3d2-    1 3d2-    1 3d2-    1 3d2-    1 3d2-    1 5g2-    1 5g4-    1 5g2- 
                                   1 5g4-    1 5g2-    1 5g4-    1 5g2-    1 5g4-    1 7i2-    1 7i6-    1 7i4-    1 7i2-    1 7i6- 
                                   1 7i4- 

   1.4   2   -13.3634 -117.5115  0.000092  0.001079  0.007217  0.031002  0.096122  0.216395  0.333871  0.339067  0.181543  0.044190
                                 0.004836 -0.000077  0.000062 -0.000017 -0.006747 -0.005011  0.000005 -0.000000  0.000000  0.000000
                                -0.000000 -0.000000  0.000000  0.000000 -0.000000  0.000000 -0.000000 -0.000000 -0.000000  0.000000
                                 0.000000

   2.4   2    -0.3360  -34.9588 -0.000027 -0.000323 -0.002168 -0.009382 -0.029419 -0.067010 -0.100090 -0.089720  0.039521  0.247350
                                 0.362402  0.326107  0.212437  0.072298  0.008331  0.006118  0.002204 -0.000000  0.000000 -0.000000
                                -0.000000  0.000000 -0.000000  0.000000 -0.000000  0.000000 -0.000000 -0.000000 -0.000000 -0.000000
                                 0.000000

   3.4   0     0.1008   -6.0376  0.000003  0.000021  0.000213  0.000647  0.002898  0.004243  0.012149 -0.004590  0.057942  0.535614
                                 0.449247 -0.189147  0.186987 -0.476030 -0.399487 -0.606034  1.255894 -0.000000  0.000000  0.000000
                                -0.000000 -0.000000  0.000000  0.000000 -0.000000 -0.000000  0.000000  0.000000  0.000000  0.000000
                                 0.000000

   4.4   0     0.3431   -9.9951 -0.000005 -0.000107 -0.000484 -0.002972 -0.006559 -0.022453 -0.014990 -0.062658  0.208404  1.865562
                                 1.673396 -0.457587  0.823656 -1.896122 -1.281360 -1.970793  0.890893  0.000000 -0.000000 -0.000000
                                 0.000000  0.000000 -0.000000 -0.000000  0.000000  0.000000 -0.000000 -0.000000 -0.000000  0.000000
                                -0.000000

                                   1 2pz     1 2pz     1 2pz     1 2pz     1 2pz     1 2pz     1 2pz     1 2pz     1 2pz     1 2pz  
                                   1 2pz     1 2pz     1 2pz     1 2pz     1 2pz     1 2pz     1 2pz     1 2pz     1 2pz     1 2pz  
                                   1 2pz     1 2pz     1 2pz     1 4f0     1 4f2+    1 4f0     1 4f2+    1 4f0     1 4f2+    1 4f0  
                                   1 4f2+    1 4f0     1 4f2+    1 6h2+    1 6h4+    1 6h0     1 6h2+    1 6h4+    1 6h0     1 6h2+ 
                                   1 6h4+    1 6h0  

   1.5   2  -118.5311 -380.0209  0.000000  0.000002  0.000027  0.000211  0.001223  0.005571  0.020625  0.063278  0.156043  0.289843
                                 0.356348  0.227538  0.056648  0.004857 -0.005663 -0.000427 -0.000052  0.000008 -0.000006  0.000003
                                 0.005904  0.000061 -0.000001 -0.000000  0.000000  0.000000 -0.000000 -0.000000  0.000000  0.000000
                                -0.000000 -0.000000  0.000000  0.000000  0.000000  0.000000  0.000000  0.000000 -0.000000  0.000000
                                 0.000000  0.000000

   2.5   2   -20.3743 -127.7348 -0.000000 -0.000001 -0.000012 -0.000094 -0.000548 -0.002509 -0.009398 -0.029549 -0.075908 -0.149442
                                -0.192494 -0.053397  0.280077  0.502440  0.370555  0.052920  0.000738  0.000016  0.000038 -0.000014
                                -0.071108  0.002081  0.000004 -0.000000  0.000000  0.000000 -0.000000 -0.000000  0.000000  0.000000
                                -0.000000 -0.000000  0.000000 -0.000000 -0.000000  0.000000 -0.000000  0.000000 -0.000000 -0.000000
                                -0.000000  0.000000

   3.5   2    -2.3301  -48.2006  0.000000  0.000000  0.000005  0.000036  0.000212  0.000969  0.003648  0.011483  0.029826  0.059119
                                 0.077569  0.012598 -0.146531 -0.304449 -0.112135  0.343376  0.308991  0.047226 -0.005350  0.002729
                                -0.043267  0.532465 -0.000835 -0.000000  0.000000 -0.000000  0.000000 -0.000000 -0.000000  0.000000
                                 0.000000  0.000000 -0.000000 -0.000000 -0.000000  0.000000 -0.000000 -0.000000 -0.000000 -0.000000
                                 0.000000  0.000000

   4.5   0     0.0274   -4.7534 -0.000000 -0.000000 -0.000000 -0.000001 -0.000004 -0.000023 -0.000069 -0.000275 -0.000550 -0.001506
                                -0.001051 -0.001785  0.007250 -0.006389  0.307080  0.034853  0.033711 -0.075727  0.219313 -0.534558
                                -0.319981 -0.050334  1.313036 -0.000000  0.000000 -0.000000  0.000000 -0.000000  0.000000 -0.000000
                                 0.000000  0.000000 -0.000000 -0.000000  0.000000 -0.000000  0.000000 -0.000000  0.000000  0.000000
                                -0.000000  0.000000

   5.5   0     0.0992   -7.6538  0.000000  0.000000  0.000000  0.000002  0.000018  0.000068  0.000308  0.000807  0.002564  0.003922
                                 0.007763 -0.003410 -0.000405 -0.061941  0.848966  0.156433  0.150969 -0.253243  0.597370 -2.051027
                                -0.906467 -0.052007  1.164595  0.000000 -0.000000  0.000000  0.000000  0.000000 -0.000000  0.000000
                                 0.000000 -0.000000 -0.000000  0.000000  0.000000  0.000000 -0.000000 -0.000000 -0.000000  0.000000
                                 0.000000 -0.000000

                                   1 3d1+    1 3d1+    1 3d1+    1 3d1+    1 3d1+    1 3d1+    1 3d1+    1 3d1+    1 3d1+    1 3d1+ 
                                   1 3d1+    1 3d1+    1 3d1+    1 3d1+    1 3d1+    1 3d1+    1 3d1+    1 5g1+    1 5g3+    1 5g1+ 
                                   1 5g3+    1 5g1+    1 5g3+    1 5g1+    1 5g3+    1 7i5+    1 7i3+    1 7i1+    1 7i5+    1 7i3+ 
                                   1 7i1+ 

   1.6   2   -13.3634 -117.5115  0.000092  0.001079  0.007217  0.031002  0.096122  0.216395  0.333871  0.339067  0.181543  0.044190
                                 0.004836 -0.000077  0.000062 -0.000017 -0.006747 -0.005011  0.000005 -0.000000  0.000000  0.000000
                                -0.000000 -0.000000  0.000000  0.000000 -0.000000 -0.000000 -0.000000  0.000000  0.000000  0.000000
                                -0.000000

   2.6   2    -0.3360  -34.9589 -0.000027 -0.000323 -0.002168 -0.009382 -0.029419 -0.067010 -0.100090 -0.089720  0.039521  0.247350
                                 0.362403  0.326107  0.212437  0.072296  0.008331  0.006118  0.002203 -0.000000  0.000000 -0.000000
                                -0.000000  0.000000 -0.000000  0.000000 -0.000000 -0.000000 -0.000000  0.000000 -0.000000 -0.000000
                                -0.000000

   3.6   0     0.1008   -6.0376  0.000003  0.000021  0.000213  0.000647  0.002898  0.004243  0.012149 -0.004590  0.057942  0.535614
                                 0.449248 -0.189146  0.186987 -0.476030 -0.399487 -0.606034  1.255894 -0.000000  0.000000  0.000000
                                -0.000000 -0.000000  0.000000  0.000000 -0.000000  0.000000  0.000000 -0.000000  0.000000 -0.000000
                                 0.000000

   4.6   0     0.3431   -9.9951 -0.000005 -0.000107 -0.000484 -0.002972 -0.006559 -0.022453 -0.014990 -0.062658  0.208404  1.865561
                                 1.673394 -0.457587  0.823655 -1.896122 -1.281359 -1.970792  0.890893  0.000000 -0.000000 -0.000000
                                 0.000000  0.000000 -0.000000 -0.000000  0.000000 -0.000000 -0.000000  0.000000 -0.000000  0.000000
                                -0.000000

                                   1 3d1-    1 3d1-    1 3d1-    1 3d1-    1 3d1-    1 3d1-    1 3d1-    1 3d1-    1 3d1-    1 3d1- 
                                   1 3d1-    1 3d1-    1 3d1-    1 3d1-    1 3d1-    1 3d1-    1 3d1-    1 5g1-    1 5g3-    1 5g1- 
                                   1 5g3-    1 5g1-    1 5g3-    1 5g1-    1 5g3-    1 7i5-    1 7i3-    1 7i1-    1 7i5-    1 7i3- 
                                   1 7i1- 

   1.7   2   -13.3634 -117.5115  0.000092  0.001079  0.007217  0.031002  0.096122  0.216395  0.333871  0.339067  0.181543  0.044190
                                 0.004836 -0.000077  0.000062 -0.000017 -0.006747 -0.005011  0.000005 -0.000000  0.000000  0.000000
                                -0.000000 -0.000000  0.000000  0.000000 -0.000000 -0.000000 -0.000000  0.000000  0.000000  0.000000
                                -0.000000

   2.7   2    -0.3360  -34.9589 -0.000027 -0.000323 -0.002168 -0.009382 -0.029419 -0.067010 -0.100090 -0.089720  0.039521  0.247350
                                 0.362403  0.326107  0.212437  0.072296  0.008331  0.006118  0.002203 -0.000000  0.000000 -0.000000
                                -0.000000  0.000000 -0.000000  0.000000 -0.000000 -0.000000 -0.000000  0.000000 -0.000000 -0.000000
                                -0.000000

   3.7   0     0.1008   -6.0376  0.000003  0.000021  0.000213  0.000647  0.002898  0.004243  0.012149 -0.004590  0.057942  0.535614
                                 0.449248 -0.189146  0.186987 -0.476030 -0.399487 -0.606034  1.255894 -0.000000  0.000000  0.000000
                                -0.000000 -0.000000  0.000000  0.000000 -0.000000  0.000000  0.000000 -0.000000  0.000000 -0.000000
                                 0.000000

   4.7   0     0.3431   -9.9951 -0.000005 -0.000107 -0.000484 -0.002972 -0.006559 -0.022453 -0.014990 -0.062658  0.208404  1.865561
                                 1.673394 -0.457587  0.823655 -1.896122 -1.281359 -1.970792  0.890893  0.000000 -0.000000 -0.000000
                                 0.000000  0.000000 -0.000000 -0.000000  0.000000 -0.000000 -0.000000  0.000000 -0.000000  0.000000
                                -0.000000

                                   1 4f2-    1 4f2-    1 4f2-    1 4f2-    1 4f2-    1 6h4-    1 6h2-    1 6h4-    1 6h2-    1 6h4- 
                                   1 6h2- 

   1.8   0     0.5025  -10.1171  0.007013 -0.009366  0.084125 -0.217110  1.108115 -0.000000  0.000000  0.000000 -0.000000 -0.000000
                                 0.000000

   2.8   0     1.3655  -17.1585  0.017917  0.119106 -0.033523  1.232692 -0.619367 -0.000000 -0.000000 -0.000000 -0.000000 -0.000000
                                 0.000000

 HOMO      2.4    -0.335995 =      -9.1429eV
 LUMO      9.1     0.011681 =       0.3178eV
 LUMO-HOMO         0.347676 =       9.4607eV


 **********************************************************************************************************************************
 DATASETS  * FILE   NREC   LENGTH (MB)   RECORD NAMES
              1      18       20.59       500      610      700      900      950      970     1000      129      960     1100   
                                          VAR    BASINP    GEOM    SYMINP    ZMAT    AOBASIS   BASIS     P2S    ABASIS      S 
                                         1400     1410     1200     1210     1080     1600     1650     1700   
                                           T        V       H0       H01     AOSYM     SMH    MOLCAS    OPER   

              2       5        5.70       200      700     1000      520     4202   
                                        OPTIONS   GEOM     BASIS   MCVARS     RHF  

 PROGRAMS   *        TOTAL       RHF       INT
 CPU TIMES  *        33.86      1.10     32.53
 REAL TIME  *        39.29 SEC
 DISK USED  *         2.28 GB      
 SF USED    *         0.06 MB      
 GA USED    *         0.00 MB       (max)       0.00 MB       (current)
 **********************************************************************************************************************************
 SETTING SCF(1)         =     -4937.92083206  AU                              

 DO I                   =         2.00000000   

 Running procedure=EAS2D9


 PROGRAM * RHF-SCF (OPEN SHELL)       Authors: W. Meyer, H.-J. Werner


 NUMBER OF ELECTRONS:      24+   23-    SPACE SYMMETRY=1    SPIN SYMMETRY: Doublet 
 CONVERGENCE THRESHOLDS:    1.00E-05 (Density)    1.00E-07 (Energy)
 MAX. NUMBER OF ITERATIONS:       60
 INTERPOLATION TYPE:            DIIS
 INTERPOLATION STEPS:              2 (START)      1 (STEP)
 LEVEL SHIFTS:                 -0.60 (CLOSED) -0.30 (OPEN) 

 Number of closed-shell orbitals:   23 (   8   3   3   2   3   2   2   0 )
 Number of open-shell orbitals:      1 (   1   0   0   0   0   0   0   0 )


 
 Extra symmetries of mos in symmetry 1:   1   1   1   1   3   2   1   3   2
 Orbital guess generated from atomic densities. Full valence occupancy:    9   3   3   2   3   2   2   0


 Molecular orbital dump at record        4202.2

 ITERATION    DDIFF          GRAD             ENERGY        2-EL.EN.            DIPOLE MOMENTS         DIIS   ORB.
    1      0.000D+00      0.000D+00     -4917.02125481   3272.387730    0.00000    0.00000    0.00000    0    start
    2      0.000D+00      0.108D+00     -4929.61038816   4111.684042    0.00000    0.00000    0.00000    1    diag,B
    3      0.125D+01      0.141D+00     -4935.44131370   3955.679610    0.00000    0.00000    0.00000    2    diag,B
    4      0.767D+00      0.553D-01     -4937.51798616   3840.790391    0.00000    0.00000    0.00000    3    diag,B
    5      0.498D+00      0.119D-01     -4937.77190700   3811.229123    0.00000    0.00000    0.00000    4    diag,B
    6      0.448D-01      0.415D-02     -4937.83891155   3798.770338    0.00000    0.00000    0.00000    5    diag,B
    7      0.399D-01      0.265D-02     -4937.86503252   3799.207423    0.00000    0.00000    0.00000    6    fixocc
    8      0.166D-01      0.142D-02     -4937.88207582   3798.115230    0.00000    0.00000    0.00000    7    diag,B
    9      0.121D-01      0.861D-03     -4937.89005703   3795.756677    0.00000    0.00000    0.00000    8    diag,B
   10      0.117D-01      0.400D-03     -4937.89204158   3794.822646    0.00000    0.00000    0.00000    9    orth
   11      0.248D-02      0.283D-03     -4937.89321327   3794.292806    0.00000    0.00000    0.00000    9    diag,B
   12      0.411D-02      0.214D-03     -4937.89446395   3792.950215    0.00000    0.00000    0.00000    9    diag,B
   13      0.863D-02      0.606D-04     -4937.89451503   3792.808777    0.00000    0.00000    0.00000    9    diag,B
   14      0.224D-02      0.199D-04     -4937.89451880   3792.733050    0.00000    0.00000    0.00000    9    diag,B
   15      0.612D-03      0.762D-05     -4937.89451913   3792.740629    0.00000    0.00000    0.00000    9    diag,B
   16      0.900D-04      0.188D-05     -4937.89451915   3792.743420    0.00000    0.00000    0.00000    9    diag,B
   17      0.119D-04      0.701D-06     -4937.89451916   3792.743408    0.00000    0.00000    0.00000    9    diag,B
   18      0.353D-05      0.360D-06     -4937.89451915   3792.743603    0.00000    0.00000    0.00000    0    orth

 Final alpha occupancy:   9   3   3   2   3   2   2   0
 Final beta  occupancy:   8   3   3   2   3   2   2   0

 !RHF STATE 1.1 Energy              -4937.894519146412
 Nuclear energy                         0.00000000
 One-electron energy                -6834.26632066
 Two-electron energy                 1896.37180151
 Virial quotient                       -0.99999939
 !RHF STATE 1.1 Dipole moment           0.00000000     0.00000000     0.00000000
 Dipole moment /Debye                   0.00000000     0.00000000     0.00000000

 ELECTRON ORBITALS
 =================


   Orb  Occ    Energy  Couls-En    Coefficients

                                   1 1s      1 1s      1 1s      1 1s      1 1s      1 1s      1 1s      1 1s      1 1s      1 1s   
                                   1 1s      1 1s      1 1s      1 1s      1 1s      1 1s      1 1s      1 1s      1 1s      1 1s   
                                   1 1s      1 1s      1 1s      1 1s      1 1s      1 1s      1 1s      1 1s      1 1s      1 3d0  
                                   1 3d2+    1 3d0     1 3d2+    1 3d0     1 3d2+    1 3d0     1 3d2+    1 3d0     1 3d2+    1 3d0  
                                   1 3d2+    1 3d0     1 3d2+    1 3d0     1 3d2+    1 3d0     1 3d2+    1 3d0     1 3d2+    1 3d0  
                                   1 3d2+    1 3d0     1 3d2+    1 3d0     1 3d2+    1 3d0     1 3d2+    1 3d0     1 3d2+    1 3d0  
                                   1 3d2+    1 3d0     1 3d2+    1 5g0     1 5g4+    1 5g2+    1 5g0     1 5g4+    1 5g2+    1 5g0  
                                   1 5g4+    1 5g2+    1 5g0     1 5g4+    1 5g2+    1 7i6+    1 7i4+    1 7i2+    1 7i0     1 7i6+ 
                                   1 7i4+    1 7i2+    1 7i0  

   1.1   2  -873.3003-1931.1265  0.000000  0.000002  0.000012  0.000054  0.000204  0.000679  0.002058  0.005839  0.015733  0.040060
                                 0.094253  0.193474  0.311507  0.318945  0.147430  0.016839  0.001487 -0.000874  0.000849 -0.001598
                                -0.001535  0.000766  0.000100 -0.000011  0.000008 -0.000003  0.002324 -0.000548  0.000001  0.000000
                                 0.000000  0.000000 -0.000000  0.000001 -0.000000  0.000001  0.000000 -0.000000  0.000000 -0.000000
                                -0.000000 -0.000000  0.000000  0.000000 -0.000000 -0.000000  0.000000 -0.000000  0.000000 -0.000000
                                 0.000000  0.000000 -0.000000  0.000000  0.000000  0.000000 -0.000000  0.000000 -0.000000  0.000000
                                -0.000000 -0.000000  0.000000 -0.000000 -0.000000  0.000000  0.000000 -0.000000  0.000000 -0.000000
                                 0.000000  0.000000  0.000000  0.000000 -0.000000  0.000000 -0.000000 -0.000000  0.000000 -0.000000
                                 0.000000 -0.000000  0.000000

   2.1   2  -127.9573 -390.0667 -0.000000 -0.000001 -0.000004 -0.000017 -0.000066 -0.000218 -0.000663 -0.001889 -0.005144 -0.013360
                                -0.032888 -0.073847 -0.142649 -0.200115 -0.110007  0.256506  0.562641  0.327100  0.048987  0.003155
                                 0.000922 -0.000554 -0.000081  0.000003 -0.000003  0.000001 -0.001410  0.000286 -0.000000  0.000000
                                 0.000000  0.000000  0.000000  0.000000  0.000000  0.000004  0.000000  0.000024  0.000000  0.000022
                                 0.000000  0.000002 -0.000000  0.000005  0.000000 -0.000002 -0.000000 -0.000011 -0.000000 -0.000000
                                -0.000000  0.000003 -0.000000  0.000001 -0.000000  0.000000  0.000000  0.000013  0.000000  0.000007
                                 0.000000 -0.000000 -0.000000  0.000005  0.000000 -0.000000 -0.000001 -0.000000  0.000000  0.000001
                                -0.000000 -0.000000 -0.000000 -0.000000  0.000000  0.000000  0.000000 -0.000000  0.000000 -0.000000
                                -0.000000 -0.000000  0.000000

   3.1   2   -24.2011 -133.5292  0.000000  0.000000  0.000002  0.000007  0.000028  0.000094  0.000286  0.000815  0.002225  0.005788
                                 0.014359  0.032594  0.064798  0.095236  0.057650 -0.162894 -0.485639 -0.376092  0.360886  0.816662
                                 0.276943 -0.039689 -0.005938  0.000958 -0.000648  0.000295 -0.054514  0.037745 -0.000080  0.000000
                                -0.000000  0.000001  0.000000  0.000006 -0.000000  0.000024  0.000000  0.000059 -0.000000  0.000174
                                 0.000000  0.000307 -0.000000  0.000442  0.000000  0.000533 -0.000000  0.000335 -0.000000  0.000040
                                -0.000000 -0.000045  0.000000 -0.000014 -0.000000 -0.000004  0.000000 -0.000334  0.000000 -0.000180
                                 0.000000  0.000000 -0.000000  0.000057  0.000000 -0.000000 -0.000100 -0.000000  0.000000  0.000028
                                 0.000000 -0.000000 -0.000013 -0.000000  0.000000  0.000000 -0.000000  0.000000  0.000000 -0.000000
                                 0.000000  0.000000 -0.000000

   4.1   2    -3.5712  -53.0755 -0.000000 -0.000000 -0.000001 -0.000003 -0.000012 -0.000039 -0.000118 -0.000336 -0.000919 -0.002388
                                -0.005937 -0.013498 -0.027003 -0.040005 -0.024825  0.072645  0.229737  0.192588 -0.219828 -0.752387
                                -0.148572  0.816069  0.579832  0.041902 -0.019615  0.008159 -0.053229 -0.022030 -0.002135 -0.000000
                                 0.000000 -0.000000  0.000000 -0.000002  0.000000 -0.000011  0.000000 -0.000022  0.000000 -0.000081
                                 0.000000 -0.000119  0.000000 -0.000220  0.000000 -0.000424  0.000000  0.000837 -0.000000 -0.000254
                                -0.000000 -0.002054  0.000000 -0.001218  0.000000 -0.000193 -0.000000  0.000119  0.000000  0.000681
                                 0.000000 -0.000010  0.000000 -0.000171 -0.000000  0.000000 -0.000609 -0.000000  0.000000 -0.000649
                                -0.000000  0.000000 -0.000036  0.000000 -0.000000  0.000000 -0.000000 -0.000000 -0.000001 -0.000000
                                 0.000000  0.000000 -0.000005

   5.1   2   -13.3477 -117.5092 -0.000000 -0.000000  0.000000  0.000000  0.000000  0.000000  0.000000  0.000000  0.000000  0.000000
                                 0.000000  0.000000  0.000000  0.000000  0.000000 -0.000000 -0.000000 -0.000000  0.000000  0.000000
                                 0.000000 -0.000000 -0.000000 -0.000000  0.000000 -0.000000  0.000000 -0.000000  0.000000  0.000000
                                 0.000092  0.000000  0.001079  0.000000  0.007220  0.000000  0.031014  0.000000  0.096164  0.000000
                                 0.216481  0.000000  0.333999  0.000000  0.339062  0.000000  0.181273  0.000000  0.043846  0.000000
                                 0.004705  0.000000 -0.000095  0.000000  0.000055 -0.000000 -0.000017 -0.000000 -0.006492 -0.000000
                                -0.004899  0.000000  0.000005  0.000000  0.000000  0.000158 -0.000000 -0.000000 -0.000012  0.000000
                                 0.000000  0.000029 -0.000000 -0.000000 -0.000009  0.000000 -0.000000  0.000020  0.000000 -0.000000
                                 0.000000 -0.000014 -0.000000

   6.1   2   -13.3487 -117.4324 -0.000000 -0.000000 -0.000000 -0.000000 -0.000000 -0.000000 -0.000000 -0.000001 -0.000003 -0.000008
                                -0.000020 -0.000044 -0.000089 -0.000131 -0.000082  0.000237  0.000690  0.000632 -0.000672 -0.001895
                                 0.000137  0.000533 -0.000026 -0.000008  0.000006 -0.000004  0.000377 -0.000272 -0.000003  0.000091
                                -0.000000  0.001077 -0.000000  0.007203 -0.000000  0.030943 -0.000000  0.095929 -0.000000  0.215983
                                -0.000000  0.333337 -0.000000  0.338985  0.000000  0.182504 -0.000000  0.044808 -0.000000  0.005049
                                -0.000000  0.000053  0.000000  0.000140 -0.000000 -0.000003  0.000000 -0.006669  0.000000 -0.005112
                                 0.000000  0.000006 -0.000000  0.000411 -0.000000 -0.000000 -0.000230  0.000000 -0.000000  0.000097
                                -0.000000  0.000000 -0.000039  0.000000 -0.000000  0.000000 -0.000000 -0.000000  0.000036 -0.000000
                                -0.000000  0.000000 -0.000024

   7.1   2    -0.0180  -11.8385  0.000000  0.000000  0.000000  0.000001  0.000002  0.000006  0.000019  0.000055  0.000150  0.000389
                                 0.000969  0.002202  0.004415  0.006535  0.004097 -0.012046 -0.038139 -0.032825  0.038769  0.138270
                                 0.016398 -0.196509 -0.216413  0.014083  0.399195  0.160112  0.017479  0.015898  0.574781  0.000000
                                 0.000000  0.000002  0.000000  0.000012  0.000000  0.000053  0.000000  0.000166  0.000000  0.000381
                                 0.000000  0.000575  0.000000  0.000509  0.000000 -0.000097 -0.000000 -0.000969 -0.000000 -0.001669
                                -0.000000 -0.000309 -0.000000  0.004438 -0.000000  0.005142 -0.000000 -0.000652 -0.000000 -0.001042
                                -0.000000  0.004708 -0.000000 -0.000108  0.000000 -0.000000 -0.000218 -0.000000 -0.000000  0.000061
                                 0.000000 -0.000000  0.000385 -0.000000 -0.000000  0.000000  0.000000 -0.000000 -0.000005 -0.000000
                                 0.000000 -0.000000  0.000004

   8.1   2    -0.2864  -35.9361  0.000000  0.000000  0.000000  0.000000  0.000000  0.000000  0.000000  0.000000  0.000000  0.000000
                                 0.000000  0.000000  0.000000  0.000000  0.000000 -0.000000 -0.000000  0.000000 -0.000000  0.000000
                                 0.000000 -0.000000 -0.000000  0.000000  0.000000  0.000000 -0.000000  0.000000 -0.000000 -0.000000
                                -0.000028 -0.000000 -0.000335 -0.000000 -0.002247 -0.000000 -0.009722 -0.000000 -0.030495 -0.000000
                                -0.069439 -0.000000 -0.103760 -0.000000 -0.092759  0.000000  0.041266  0.000000  0.253532  0.000000
                                 0.374344  0.000000  0.331887  0.000000  0.183799  0.000000  0.046302  0.000000  0.011711  0.000000
                                 0.010632 -0.000000  0.001882  0.000000  0.000000  0.000695 -0.000000  0.000000  0.001796  0.000000
                                -0.000000  0.001867 -0.000000 -0.000000  0.000878 -0.000000 -0.000000  0.000270  0.000000 -0.000000
                                -0.000000  0.000227  0.000000

   9.1   +    -0.3659  -36.5615  0.000000  0.000000  0.000000  0.000000  0.000000  0.000000  0.000001  0.000002  0.000006  0.000015
                                 0.000039  0.000086  0.000180  0.000251  0.000190 -0.000549 -0.001388 -0.001766  0.002598  0.002365
                                -0.015898  0.011324  0.011884  0.019176 -0.003486 -0.000487  0.013972 -0.029226 -0.009148 -0.000029
                                 0.000000 -0.000341  0.000000 -0.002290  0.000000 -0.009910  0.000000 -0.031078  0.000000 -0.070796
                                 0.000000 -0.105757  0.000000 -0.094598  0.000000  0.040627 -0.000000  0.259141 -0.000000  0.385594
                                -0.000000  0.334118 -0.000000  0.165809 -0.000000  0.032058 -0.000000  0.010790 -0.000000  0.010211
                                -0.000000  0.000601  0.000000  0.001712 -0.000000  0.000000  0.005354  0.000000  0.000000  0.004229
                                -0.000000 -0.000000  0.001277  0.000000 -0.000000  0.000000 -0.000000 -0.000000  0.001006 -0.000000
                                -0.000000 -0.000000  0.000803

  10.1   0     0.1390   -6.0107 -0.000000 -0.000000 -0.000000 -0.000000 -0.000001 -0.000004 -0.000011 -0.000034 -0.000082 -0.000241
                                -0.000522 -0.001382 -0.002290 -0.004481 -0.000646  0.002730  0.032427 -0.006100  0.046320 -0.406618
                                -0.950327  1.573897  0.816770 -0.777472  1.678900 -3.595894  0.867019 -1.665484  2.662967 -0.000000
                                -0.000000 -0.000004 -0.000000 -0.000027 -0.000000 -0.000117 -0.000000 -0.000363 -0.000000 -0.000837
                                -0.000000 -0.001235 -0.000000 -0.001145 -0.000000  0.000601  0.000000  0.004726  0.000000  0.005732
                                 0.000000  0.001858 -0.000000 -0.001642  0.000000 -0.003021 -0.000000 -0.000792 -0.000000 -0.001151
                                -0.000000 -0.001589  0.000000  0.000144 -0.000000  0.000000  0.000017  0.000000  0.000000 -0.000650
                                -0.000000  0.000000 -0.000626  0.000000  0.000000  0.000000  0.000000  0.000000  0.000014 -0.000000
                                -0.000000  0.000000 -0.000009

  11.1   0     0.2140   -5.7736 -0.000000 -0.000000 -0.000000 -0.000000 -0.000000 -0.000000 -0.000000 -0.000001 -0.000002 -0.000006
                                -0.000014 -0.000033 -0.000066 -0.000097 -0.000061  0.000180  0.000566  0.000496 -0.000584 -0.002114
                                -0.000139  0.003084  0.002587 -0.002542 -0.001620 -0.008112 -0.000269 -0.000075  0.002916  0.000002
                                -0.000000  0.000010 -0.000000  0.000163 -0.000000  0.000361 -0.000000  0.002214 -0.000000  0.002105
                                -0.000000  0.010384 -0.000000 -0.009988  0.000000  0.074153 -0.000001  0.679018 -0.000005  0.575707
                                -0.000004 -0.218662  0.000002  0.245115 -0.000002 -0.539855  0.000004 -0.497383  0.000004 -0.754122
                                 0.000006  1.283361 -0.000010 -0.000103 -0.000000  0.000000 -0.000231  0.000000  0.000000 -0.000323
                                -0.000000  0.000000  0.000758  0.000000 -0.000000 -0.000000 -0.000000  0.000000 -0.000062  0.000000
                                 0.000000  0.000000 -0.000006

                                   1 2px     1 2px     1 2px     1 2px     1 2px     1 2px     1 2px     1 2px     1 2px     1 2px  
                                   1 2px     1 2px     1 2px     1 2px     1 2px     1 2px     1 2px     1 2px     1 2px     1 2px  
                                   1 2px     1 2px     1 2px     1 4f1+    1 4f3+    1 4f1+    1 4f3+    1 4f1+    1 4f3+    1 4f1+ 
                                   1 4f3+    1 4f1+    1 4f3+    1 6h1+    1 6h3+    1 6h5+    1 6h1+    1 6h3+    1 6h5+    1 6h1+ 
                                   1 6h3+    1 6h5+ 

   1.2   2  -118.5189 -380.0087  0.000000  0.000002  0.000027  0.000211  0.001223  0.005571  0.020625  0.063277  0.156041  0.289844
                                 0.356352  0.227532  0.056654  0.004854 -0.005638 -0.000428 -0.000051  0.000009 -0.000006  0.000003
                                 0.005877  0.000060 -0.000001  0.000009  0.000000 -0.000014 -0.000000  0.000003  0.000000 -0.000002
                                -0.000000  0.000001  0.000000  0.000000 -0.000000  0.000000 -0.000000  0.000000  0.000000  0.000000
                                -0.000000  0.000000

   2.2   2   -20.3590 -127.7237 -0.000000 -0.000001 -0.000012 -0.000095 -0.000548 -0.002509 -0.009399 -0.029553 -0.075916 -0.149463
                                -0.192523 -0.053396  0.280184  0.502558  0.369379  0.052923  0.000701 -0.000010  0.000031 -0.000016
                                -0.070132  0.002100  0.000004  0.000277  0.000000  0.000075 -0.000000  0.000055 -0.000000 -0.000006
                                -0.000000  0.000004  0.000000  0.000022 -0.000000 -0.000000 -0.000024  0.000000 -0.000000  0.000008
                                -0.000000  0.000000

   3.2   2    -2.3003  -48.3463  0.000000  0.000000  0.000005  0.000037  0.000213  0.000975  0.003669  0.011553  0.029996  0.059486
                                 0.077989  0.012765 -0.147731 -0.305619 -0.132470  0.343316  0.302034  0.040558 -0.004125  0.002522
                                -0.022606  0.541864 -0.000660  0.000618  0.000000  0.003699  0.000000  0.004581 -0.000000  0.001009
                                 0.000000  0.000103 -0.000000  0.000268 -0.000000 -0.000000  0.000055 -0.000000 -0.000000 -0.000084
                                 0.000000  0.000000

   4.2   0     0.1149   -4.3240 -0.000000 -0.000000 -0.000000 -0.000001 -0.000003 -0.000022 -0.000051 -0.000264 -0.000389 -0.001516
                                -0.000326 -0.002970  0.009993 -0.017854  0.548785  0.070819  0.067331 -0.134872  0.378162 -0.847770
                                -0.574965 -0.077350  1.466863 -0.000002 -0.000000 -0.000042  0.000000  0.000029 -0.000000  0.000071
                                 0.000000  0.000789 -0.000000 -0.000014  0.000000 -0.000000  0.000006 -0.000000  0.000000  0.000089
                                -0.000000  0.000000

   5.2   0     0.2063   -8.0195 -0.000000 -0.000000 -0.000000 -0.000003 -0.000021 -0.000077 -0.000350 -0.000907 -0.002915 -0.004387
                                -0.008897  0.004158 -0.000305  0.072680 -1.019048 -0.185660 -0.179201  0.311905 -0.613579  1.989707
                                 1.087205  0.063995 -1.006336 -0.000007  0.000000 -0.000168  0.000000  0.000131  0.000000  0.000633
                                 0.000000  0.003429 -0.000000 -0.000069  0.000000 -0.000000  0.000040 -0.000000  0.000000  0.000432
                                -0.000000  0.000000

                                   1 2py     1 2py     1 2py     1 2py     1 2py     1 2py     1 2py     1 2py     1 2py     1 2py  
                                   1 2py     1 2py     1 2py     1 2py     1 2py     1 2py     1 2py     1 2py     1 2py     1 2py  
                                   1 2py     1 2py     1 2py     1 4f1-    1 4f3-    1 4f1-    1 4f3-    1 4f1-    1 4f3-    1 4f1- 
                                   1 4f3-    1 4f1-    1 4f3-    1 6h1-    1 6h3-    1 6h5-    1 6h1-    1 6h3-    1 6h5-    1 6h1- 
                                   1 6h3-    1 6h5- 

   1.3   2  -118.5189 -380.0087  0.000000  0.000002  0.000027  0.000211  0.001223  0.005571  0.020625  0.063277  0.156041  0.289844
                                 0.356352  0.227532  0.056654  0.004854 -0.005638 -0.000428 -0.000051  0.000009 -0.000006  0.000003
                                 0.005877  0.000060 -0.000001  0.000009  0.000000 -0.000014 -0.000000  0.000003  0.000000 -0.000002
                                -0.000000  0.000001  0.000000  0.000000 -0.000000  0.000000 -0.000000  0.000000  0.000000  0.000000
                                 0.000000  0.000000

   2.3   2   -20.3590 -127.7237 -0.000000 -0.000001 -0.000012 -0.000095 -0.000548 -0.002509 -0.009399 -0.029553 -0.075916 -0.149463
                                -0.192523 -0.053396  0.280184  0.502558  0.369379  0.052923  0.000701 -0.000010  0.000031 -0.000016
                                -0.070132  0.002100  0.000004  0.000277  0.000000  0.000075 -0.000000  0.000055  0.000000 -0.000006
                                -0.000000  0.000004  0.000000  0.000022 -0.000000 -0.000000 -0.000024  0.000000 -0.000000  0.000008
                                -0.000000  0.000000

   3.3   2    -2.3003  -48.3463  0.000000  0.000000  0.000005  0.000037  0.000213  0.000975  0.003669  0.011553  0.029996  0.059486
                                 0.077989  0.012765 -0.147731 -0.305619 -0.132470  0.343316  0.302034  0.040558 -0.004125  0.002522
                                -0.022606  0.541864 -0.000660  0.000618  0.000000  0.003699  0.000000  0.004581 -0.000000  0.001009
                                -0.000000  0.000103 -0.000000  0.000268 -0.000000 -0.000000  0.000055 -0.000000 -0.000000 -0.000084
                                -0.000000  0.000000

   4.3   0     0.1149   -4.3240 -0.000000 -0.000000 -0.000000 -0.000001 -0.000003 -0.000022 -0.000051 -0.000264 -0.000389 -0.001516
                                -0.000326 -0.002970  0.009993 -0.017854  0.548785  0.070819  0.067331 -0.134872  0.378162 -0.847770
                                -0.574965 -0.077350  1.466863 -0.000002 -0.000000 -0.000042 -0.000000  0.000029 -0.000000  0.000071
                                -0.000000  0.000789 -0.000000 -0.000014 -0.000000 -0.000000  0.000006  0.000000  0.000000  0.000089
                                -0.000000  0.000000

   5.3   0     0.2063   -8.0195 -0.000000 -0.000000 -0.000000 -0.000003 -0.000021 -0.000077 -0.000350 -0.000907 -0.002915 -0.004387
                                -0.008897  0.004158 -0.000305  0.072680 -1.019048 -0.185660 -0.179201  0.311905 -0.613579  1.989707
                                 1.087205  0.063995 -1.006336 -0.000007  0.000000 -0.000168  0.000000  0.000131  0.000000  0.000633
                                -0.000000  0.003429 -0.000000 -0.000069  0.000000 -0.000000  0.000040  0.000000  0.000000  0.000432
                                -0.000000  0.000000

                                   1 3d2-    1 3d2-    1 3d2-    1 3d2-    1 3d2-    1 3d2-    1 3d2-    1 3d2-    1 3d2-    1 3d2- 
                                   1 3d2-    1 3d2-    1 3d2-    1 3d2-    1 3d2-    1 3d2-    1 3d2-    1 5g2-    1 5g4-    1 5g2- 
                                   1 5g4-    1 5g2-    1 5g4-    1 5g2-    1 5g4-    1 7i2-    1 7i6-    1 7i4-    1 7i2-    1 7i6- 
                                   1 7i4- 

   1.4   2   -13.3477 -117.5092  0.000092  0.001079  0.007220  0.031014  0.096164  0.216481  0.333999  0.339062  0.181273  0.043846
                                 0.004705 -0.000095  0.000055 -0.000017 -0.006492 -0.004899  0.000005  0.000158  0.000000 -0.000012
                                -0.000000  0.000029  0.000000 -0.000009 -0.000000  0.000020 -0.000000 -0.000000 -0.000014 -0.000000
                                 0.000000

   2.4   2    -0.2864  -35.9361 -0.000028 -0.000335 -0.002247 -0.009722 -0.030495 -0.069439 -0.103760 -0.092759  0.041266  0.253532
                                 0.374344  0.331887  0.183799  0.046302  0.011711  0.010632  0.001882  0.000695  0.000000  0.001796
                                 0.000000  0.001867 -0.000000  0.000878 -0.000000  0.000270 -0.000000 -0.000000  0.000227 -0.000000
                                -0.000000

   3.4   0     0.2149   -5.7773  0.000003  0.000013  0.000181  0.000435  0.002459  0.002630  0.011246 -0.009416  0.074563  0.683977
                                 0.578820 -0.223313  0.244552 -0.549525 -0.502481 -0.761621  1.287912 -0.000023 -0.000000 -0.000022
                                -0.000000 -0.000117  0.000000  0.000250 -0.000000 -0.000037 -0.000000  0.000000 -0.000008  0.000000
                                 0.000000

   4.4   0     0.4734   -9.7773 -0.000004 -0.000101 -0.000439 -0.002784 -0.005941 -0.021125 -0.012805 -0.061179  0.209883  1.878413
                                 1.678704 -0.465769  0.781517 -1.862591 -1.294297 -1.987332  0.845337  0.000092  0.000000  0.000063
                                 0.000000  0.000453 -0.000000 -0.001495  0.000000  0.000156  0.000000 -0.000000 -0.000023 -0.000000
                                 0.000000

                                   1 2pz     1 2pz     1 2pz     1 2pz     1 2pz     1 2pz     1 2pz     1 2pz     1 2pz     1 2pz  
                                   1 2pz     1 2pz     1 2pz     1 2pz     1 2pz     1 2pz     1 2pz     1 2pz     1 2pz     1 2pz  
                                   1 2pz     1 2pz     1 2pz     1 4f0     1 4f2+    1 4f0     1 4f2+    1 4f0     1 4f2+    1 4f0  
                                   1 4f2+    1 4f0     1 4f2+    1 6h2+    1 6h4+    1 6h0     1 6h2+    1 6h4+    1 6h0     1 6h2+ 
                                   1 6h4+    1 6h0  

   1.5   2  -118.5240 -380.0138  0.000000  0.000002  0.000027  0.000211  0.001223  0.005571  0.020625  0.063276  0.156038  0.289839
                                 0.356365  0.227539  0.056632  0.004856 -0.005667 -0.000421 -0.000049  0.000010 -0.000006  0.000003
                                 0.005913  0.000065 -0.000001  0.000004  0.000000  0.000018 -0.000000  0.000000  0.000000  0.000002
                                -0.000000 -0.000000  0.000000 -0.000000  0.000000  0.000001  0.000000  0.000000 -0.000000 -0.000000
                                 0.000000  0.000000

   2.5   2   -20.3777 -127.7327 -0.000000 -0.000001 -0.000012 -0.000094 -0.000547 -0.002509 -0.009397 -0.029543 -0.075893 -0.149412
                                -0.192481 -0.053401  0.280036  0.502241  0.369621  0.053022  0.000651 -0.000026  0.000031 -0.000017
                                -0.069908  0.001967  0.000005  0.000605  0.000000 -0.000120 -0.000000 -0.000087  0.000000 -0.000017
                                -0.000000 -0.000000  0.000000 -0.000000 -0.000000  0.000028  0.000000 -0.000000 -0.000031 -0.000000
                                 0.000000  0.000010

   3.5   2    -2.3047  -48.3961  0.000000  0.000000  0.000005  0.000037  0.000213  0.000976  0.003673  0.011566  0.030027  0.059553
                                 0.078072  0.012809 -0.147986 -0.305569 -0.136845  0.343006  0.300220  0.038206 -0.004089  0.002386
                                -0.018849  0.545279 -0.000625 -0.000422  0.000000 -0.000830  0.000000 -0.002583  0.000000 -0.002230
                                 0.000000 -0.000069 -0.000000 -0.000000 -0.000000  0.000334 -0.000000 -0.000000  0.000051  0.000000
                                 0.000000 -0.000111

   4.5   0     0.1145   -4.3592 -0.000000 -0.000000 -0.000000 -0.000001 -0.000003 -0.000024 -0.000057 -0.000282 -0.000440 -0.001607
                                -0.000467 -0.002954  0.010152 -0.017039  0.542314  0.069178  0.065866 -0.131621  0.377676 -0.832328
                                -0.567875 -0.077937  1.458000 -0.000004 -0.000000 -0.000144 -0.000000  0.000046 -0.000000  0.000363
                                -0.000000  0.001442 -0.000000  0.000000 -0.000000 -0.000021 -0.000000  0.000000  0.000013 -0.000000
                                 0.000000  0.000132

   5.5   0     0.2029   -8.1545 -0.000000 -0.000000 -0.000000 -0.000003 -0.000021 -0.000082 -0.000367 -0.000965 -0.003049 -0.004696
                                -0.009205  0.003939  0.000857  0.072790 -0.986255 -0.183159 -0.176601  0.310801 -0.575228  1.957585
                                 1.053577  0.055858 -1.008035 -0.000016  0.000000 -0.000609  0.000000  0.000223  0.000000  0.002274
                                 0.000000  0.006268 -0.000000  0.000000 -0.000000 -0.000097 -0.000000  0.000000  0.000074 -0.000000
                                 0.000000  0.000620

                                   1 3d1+    1 3d1+    1 3d1+    1 3d1+    1 3d1+    1 3d1+    1 3d1+    1 3d1+    1 3d1+    1 3d1+ 
                                   1 3d1+    1 3d1+    1 3d1+    1 3d1+    1 3d1+    1 3d1+    1 3d1+    1 5g1+    1 5g3+    1 5g1+ 
                                   1 5g3+    1 5g1+    1 5g3+    1 5g1+    1 5g3+    1 7i5+    1 7i3+    1 7i1+    1 7i5+    1 7i3+ 
                                   1 7i1+ 

   1.6   2   -13.3603 -117.5153  0.000092  0.001079  0.007219  0.031009  0.096148  0.216462  0.333956  0.338984  0.181354  0.043966
                                 0.004751 -0.000087  0.000056 -0.000017 -0.006463 -0.004894  0.000005  0.000336  0.000000 -0.000163
                                -0.000000  0.000075  0.000000 -0.000030 -0.000000 -0.000000 -0.000000  0.000031 -0.000000  0.000000
                                -0.000022

   2.6   2    -0.3152  -36.1619 -0.000029 -0.000337 -0.002261 -0.009783 -0.030689 -0.069885 -0.104422 -0.093386  0.041246  0.255183
                                 0.377610  0.332892  0.177829  0.040838  0.011882  0.010940  0.001287  0.000733  0.000000  0.002159
                                 0.000000  0.001870 -0.000000  0.000684 -0.000000 -0.000000 -0.000000  0.000432 -0.000000 -0.000000
                                 0.000354

   3.6   0     0.2145   -5.7771  0.000003  0.000012  0.000174  0.000409  0.002370  0.002444  0.010928 -0.009596  0.074278  0.681035
                                 0.576733 -0.221324  0.244352 -0.544806 -0.499830 -0.757682  1.285736 -0.000083 -0.000000 -0.000172
                                -0.000000 -0.000261  0.000000  0.000601 -0.000000 -0.000000  0.000000 -0.000058  0.000000 -0.000000
                                -0.000010

   4.6   0     0.4706   -9.7386 -0.000004 -0.000099 -0.000428 -0.002728 -0.005792 -0.020711 -0.012372 -0.060302  0.207687  1.859320
                                 1.661318 -0.462169  0.769501 -1.857621 -1.281624 -1.967788  0.846845  0.000342  0.000000  0.000646
                                 0.000000  0.000940 -0.000000 -0.003735  0.000000  0.000000 -0.000000  0.000249 -0.000000  0.000000
                                -0.000045

                                   1 3d1-    1 3d1-    1 3d1-    1 3d1-    1 3d1-    1 3d1-    1 3d1-    1 3d1-    1 3d1-    1 3d1- 
                                   1 3d1-    1 3d1-    1 3d1-    1 3d1-    1 3d1-    1 3d1-    1 3d1-    1 5g1-    1 5g3-    1 5g1- 
                                   1 5g3-    1 5g1-    1 5g3-    1 5g1-    1 5g3-    1 7i5-    1 7i3-    1 7i1-    1 7i5-    1 7i3- 
                                   1 7i1- 

   1.7   2   -13.3603 -117.5153  0.000092  0.001079  0.007219  0.031009  0.096148  0.216462  0.333956  0.338984  0.181354  0.043966
                                 0.004751 -0.000087  0.000056 -0.000017 -0.006463 -0.004894  0.000005  0.000336  0.000000 -0.000163
                                -0.000000  0.000075  0.000000 -0.000030 -0.000000 -0.000000 -0.000000  0.000031 -0.000000  0.000000
                                -0.000022

   2.7   2    -0.3152  -36.1619 -0.000029 -0.000337 -0.002261 -0.009783 -0.030689 -0.069885 -0.104422 -0.093386  0.041246  0.255183
                                 0.377610  0.332892  0.177829  0.040838  0.011882  0.010940  0.001287  0.000733  0.000000  0.002159
                                 0.000000  0.001870 -0.000000  0.000684 -0.000000 -0.000000 -0.000000  0.000432 -0.000000 -0.000000
                                 0.000354

   3.7   0     0.2145   -5.7771  0.000003  0.000012  0.000174  0.000409  0.002370  0.002444  0.010928 -0.009596  0.074278  0.681035
                                 0.576733 -0.221324  0.244352 -0.544806 -0.499830 -0.757682  1.285736 -0.000083 -0.000000 -0.000172
                                -0.000000 -0.000261  0.000000  0.000601 -0.000000 -0.000000  0.000000 -0.000058  0.000000  0.000000
                                -0.000010

   4.7   0     0.4706   -9.7386 -0.000004 -0.000099 -0.000428 -0.002728 -0.005792 -0.020711 -0.012372 -0.060302  0.207687  1.859320
                                 1.661318 -0.462169  0.769501 -1.857621 -1.281624 -1.967788  0.846845  0.000342  0.000000  0.000646
                                -0.000000  0.000940 -0.000000 -0.003735  0.000000  0.000000 -0.000000  0.000249 -0.000000 -0.000000
                                -0.000045

                                   1 4f2-    1 4f2-    1 4f2-    1 4f2-    1 4f2-    1 6h4-    1 6h2-    1 6h4-    1 6h2-    1 6h4- 
                                   1 6h2- 

   1.8   0     0.6471  -10.0295  0.007369 -0.007917  0.085267 -0.204692  1.101616 -0.000000  0.000102  0.000000 -0.000137 -0.000000
                                 0.001525

   2.8   0     1.4658  -17.3595  0.021415  0.122299 -0.004406  1.207918 -0.622006  0.000000  0.000357  0.000000  0.001097 -0.000000
                                 0.005083

 HOMO      2.4    -0.286415 =      -7.7938eV
 LUMO      4.5     0.114508 =       3.1159eV
 LUMO-HOMO         0.400924 =      10.9097eV


 **********************************************************************************************************************************
 DATASETS  * FILE   NREC   LENGTH (MB)   RECORD NAMES
              1      18       20.59       500      610      700      900      950      970     1000      129      960     1100   
                                          VAR    BASINP    GEOM    SYMINP    ZMAT    AOBASIS   BASIS     P2S    ABASIS      S 
                                         1400     1410     1200     1210     1080     1600     1650     1700   
                                           T        V       H0       H01     AOSYM     SMH    MOLCAS    OPER   

              2       5        5.82       200      700     1000      520     4202   
                                        OPTIONS   GEOM     BASIS   MCVARS     RHF  

 PROGRAMS   *        TOTAL       RHF       RHF       INT
 CPU TIMES  *        35.66      1.78      1.10     32.53
 REAL TIME  *        44.87 SEC
 DISK USED  *         2.30 GB      
 SF USED    *         0.06 MB      
 GA USED    *         0.00 MB       (max)       0.00 MB       (current)
 **********************************************************************************************************************************


 PROGRAM * POP (Mulliken population analysis)

 
 Density matrix read from record         4202.2  Type=RHF/CHARGE (state 1.1)
 
 Population analysis by basis function type

 Unique atom        s        p        d        f        g    Total    Charge
   1  PD      9.99990 17.99968 18.99985  0.00032  0.00024 47.00000  - 1.00000


 **********************************************************************************************************************************
 DATASETS  * FILE   NREC   LENGTH (MB)   RECORD NAMES
              1      18       20.59       500      610      700      900      950      970     1000      129      960     1100   
                                          VAR    BASINP    GEOM    SYMINP    ZMAT    AOBASIS   BASIS     P2S    ABASIS      S 
                                         1400     1410     1200     1210     1080     1600     1650     1700   
                                           T        V       H0       H01     AOSYM     SMH    MOLCAS    OPER   

              2       5        5.82       200      700     1000      520     4202   
[...]
                                -0.055376 -0.084109  0.740981  0.406742 -0.136988 -0.192217 -0.031020  0.000000 -0.000000 -0.000000
                                 0.000000  0.000000  0.000000  0.000001 -0.000000 -0.000000 -0.000000 -0.000000  0.000000  0.000000
                                -0.000000

   4.6   0    -0.5957  -10.3814 -0.000009 -0.000096 -0.000696 -0.002819 -0.009490 -0.019966 -0.033822 -0.017964 -0.024689 -0.307248
                                -0.191981  0.118950 -0.943022  0.651037  0.293860  0.436444  0.610893 -0.000000  0.000000  0.000000
                                -0.000000 -0.000000 -0.000000 -0.000000  0.000000  0.000000  0.000000  0.000000 -0.000000 -0.000000
                                 0.000000

                                   1 3d1-    1 3d1-    1 3d1-    1 3d1-    1 3d1-    1 3d1-    1 3d1-    1 3d1-    1 3d1-    1 3d1- 
                                   1 3d1-    1 3d1-    1 3d1-    1 3d1-    1 3d1-    1 3d1-    1 3d1-    1 5g1-    1 5g3-    1 5g1- 
                                   1 5g3-    1 5g1-    1 5g3-    1 5g1-    1 5g3-    1 7i5-    1 7i3-    1 7i1-    1 7i5-    1 7i3- 
                                   1 7i1- 

   1.7   2   -16.3447 -120.5145  0.000092  0.001079  0.007221  0.031014  0.096179  0.216573  0.334098  0.338861  0.181277  0.043208
                                 0.004422 -0.000115  0.000052 -0.000016 -0.005840 -0.004862  0.000005 -0.000000  0.000000  0.000000
                                -0.000000 -0.000000  0.000000  0.000000 -0.000000 -0.000000 -0.000000 -0.000000  0.000000 -0.000000
                                 0.000000

   2.7   +    -3.1562  -43.9360 -0.000034 -0.000404 -0.002700 -0.011724 -0.036661 -0.083935 -0.124292 -0.112425  0.061639  0.406788
                                 0.540462  0.247202  0.015812 -0.000168 -0.047624 -0.071377 -0.000048 -0.000000 -0.000000  0.000000
                                -0.000000  0.000000 -0.000000 -0.000000  0.000000  0.000000  0.000000  0.000000  0.000000 -0.000000
                                -0.000000

   3.7   0    -1.0058  -16.9245  0.000012  0.000140  0.000965  0.004086  0.013140  0.029187  0.045328  0.033983 -0.005745  0.049235
                                -0.055376 -0.084109  0.740981  0.406742 -0.136988 -0.192217 -0.031020  0.000000  0.000000 -0.000000
                                 0.000000  0.000000  0.000000  0.000001  0.000000 -0.000000  0.000000 -0.000000  0.000000 -0.000000
                                -0.000000

   4.7   0    -0.5957  -10.3814 -0.000009 -0.000096 -0.000696 -0.002819 -0.009490 -0.019966 -0.033822 -0.017964 -0.024689 -0.307248
                                -0.191981  0.118950 -0.943022  0.651037  0.293860  0.436444  0.610893 -0.000000 -0.000000  0.000000
                                -0.000000 -0.000000  0.000000 -0.000000 -0.000000  0.000000 -0.000000  0.000000 -0.000000  0.000000
                                 0.000000

                                   1 4f2-    1 4f2-    1 4f2-    1 4f2-    1 4f2-    1 6h4-    1 6h2-    1 6h4-    1 6h2-    1 6h4- 
                                   1 6h2- 

   1.8   0    -0.9069  -20.9204  0.049535  0.125329  0.269499  0.493537  0.400002  0.000000 -0.000000  0.000000  0.000000 -0.000000
                                 0.000000

   2.8   0    -0.5176  -16.7818 -0.055707 -0.145631 -0.281723 -0.560388  1.054963 -0.000000  0.000000  0.000000 -0.000000 -0.000000
                                 0.000000

 HOMO      2.4    -3.156232 =     -85.8855eV
 LUMO      9.1    -1.716819 =     -46.7170eV
 LUMO-HOMO         1.439413 =      39.1684eV


 **********************************************************************************************************************************
 DATASETS  * FILE   NREC   LENGTH (MB)   RECORD NAMES
              1      19       67.05       500      610      700      900      950      970     1000      129      960     1100   
                                          VAR    BASINP    GEOM    SYMINP    ZMAT    AOBASIS   BASIS     P2S    ABASIS      S 
                                         1400     1410     1200     1210     1080     1600     1650     1700     1380   
                                           T        V       H0       H01     AOSYM     SMH    MOLCAS    OPER     JKOP   

              2      15       34.28       200      700     1000      520     4202     5202     2102     2105     5202(1)  2107   
                                        OPTIONS   GEOM     BASIS   MCVARS     RHF     MCSCF     RHF      RHF     MCSCF     RHF  
                                         2109     2111     2113     2115     2117   
                                          RHF      RHF      RHF      RHF      RHF  

 PROGRAMS   *        TOTAL       RHF       RHF     MULTI       POP       RHF       RHF     MULTI       POP       RHF       RHF
 CPU TIMES  *       162.97      1.02      0.28      7.50      0.00      1.72      0.67      8.18      0.01      1.89      0.32
 REAL TIME  *       357.73 SEC
 DISK USED  *         4.02 GB      
 SF USED    *       191.57 MB      
 GA USED    *         0.00 MB       (max)       0.00 MB       (current)
 **********************************************************************************************************************************
 SETTING SCF(11)        =     -4931.86546891  AU                              

 DO I                   =        12.00000000   

 Running procedure=XIKR


 PROGRAM * RHF-SCF (CLOSED SHELL)       Authors: W. Meyer, H.-J. Werner


 NUMBER OF ELECTRONS:      18+   18-    SPACE SYMMETRY=1    SPIN SYMMETRY: Singlet 
 CONVERGENCE THRESHOLDS:    1.00E-05 (Density)    1.00E-07 (Energy)
 MAX. NUMBER OF ITERATIONS:       60
 INTERPOLATION TYPE:            DIIS
 INTERPOLATION STEPS:              2 (START)      1 (STEP)
 LEVEL SHIFTS:                  0.00 (CLOSED)  0.00 (OPEN) 



 Orbital guess generated from atomic densities. Full valence occupancy:    9   3   3   2   3   2   2   0


 Molecular orbital dump at record        2119.2

 Initial occupancy:   6   3   3   1   3   1   1   0

 ITERATION    DDIFF          GRAD             ENERGY        2-EL.EN.            DIPOLE MOMENTS         DIIS   ORB.
    1      0.000D+00      0.000D+00     -4907.70409597   3134.025132    0.00000    0.00000    0.00000    0    start
    2      0.000D+00      0.111D+00     -4909.36518650   3239.476753    0.00000    0.00000    0.00000    1    diag
    3      0.262D-01      0.382D-01     -4909.43560390   3220.113460    0.00000    0.00000    0.00000    2    diag
    4      0.422D-02      0.242D-02     -4909.43604226   3220.653838    0.00000    0.00000    0.00000    3    diag
    5      0.129D-02      0.207D-03     -4909.43604648   3220.785432    0.00000    0.00000    0.00000    4    diag
    6      0.135D-03      0.153D-04     -4909.43604650   3220.778606    0.00000    0.00000    0.00000    5    diag
    7      0.946D-05      0.297D-06     -4909.43604650   3220.778809    0.00000    0.00000    0.00000    0    orth

 Final occupancy:   6   3   3   1   3   1   1   0

 !RHF STATE 1.1 Energy              -4909.436046499509
 Nuclear energy                         0.00000000
 One-electron energy                -6519.82545083
 Two-electron energy                 1610.38940433
 Virial quotient                       -1.00000008
 !RHF STATE 1.1 Dipole moment           0.00000000     0.00000000     0.00000000
 Dipole moment /Debye                   0.00000000     0.00000000     0.00000000

 Orbital energies:

         1.1          2.1          3.1          4.1          5.1          6.1          7.1          8.1
   -880.812583  -135.528364   -31.577239   -20.725178   -20.725178   -10.208601    -5.888354    -5.888354

         1.2          2.2          3.2          4.2          5.2
   -126.090352   -27.744700    -8.755162    -3.773848    -3.646676

         1.3          2.3          3.3          4.3          5.3
   -126.090352   -27.744700    -8.755162    -3.773848    -3.646676

         1.4          2.4          3.4
    -20.725178    -5.888354    -3.050738

         1.5          2.5          3.5          4.5          5.5
   -126.090352   -27.744700    -8.755162    -3.773848    -3.646676

         1.6          2.6          3.6
    -20.725178    -5.888354    -3.050738

         1.7          2.7          3.7
    -20.725178    -5.888354    -3.050738

         1.8          2.8
     -3.646676    -2.263264

 HOMO      3.5    -8.755162 =    -238.2401eV
 LUMO      7.1    -5.888354 =    -160.2303eV
 LUMO-HOMO         2.866808 =      78.0098eV


 **********************************************************************************************************************************
 DATASETS  * FILE   NREC   LENGTH (MB)   RECORD NAMES
              1      19       67.05       500      610      700      900      950      970     1000      129      960     1100   
                                          VAR    BASINP    GEOM    SYMINP    ZMAT    AOBASIS   BASIS     P2S    ABASIS      S 
                                         1400     1410     1200     1210     1080     1600     1650     1700     1380   
                                           T        V       H0       H01     AOSYM     SMH    MOLCAS    OPER     JKOP   

              2      16       37.27       200      700     1000      520     4202     5202     2102     2105     5202(1)  2107   
                                        OPTIONS   GEOM     BASIS   MCVARS     RHF     MCSCF     RHF      RHF     MCSCF     RHF  
                                         2109     2111     2113     2115     2117     2119   
                                          RHF      RHF      RHF      RHF      RHF      RHF  

 PROGRAMS   *        TOTAL       RHF       RHF       RHF     MULTI       POP       RHF       RHF     MULTI       POP       RHF
 CPU TIMES  *       164.09      1.00      1.02      0.28      7.50      0.00      1.72      0.67      8.18      0.01      1.89
 REAL TIME  *       360.73 SEC
 DISK USED  *         4.06 GB      
 SF USED    *       191.57 MB      
 GA USED    *         0.00 MB       (max)       0.00 MB       (current)
 **********************************************************************************************************************************
 SETTING SCF(12)        =     -4909.43604650  AU                              

 DO I                   =        13.00000000   

 Running procedure=XIVP3


 PROGRAM * RHF-SCF (OPEN SHELL)       Authors: W. Meyer, H.-J. Werner


 NUMBER OF ELECTRONS:      18+   15-    SPACE SYMMETRY=8    SPIN SYMMETRY: Quartet 
 CONVERGENCE THRESHOLDS:    1.00E-05 (Density)    1.00E-07 (Energy)
 MAX. NUMBER OF ITERATIONS:       60
 INTERPOLATION TYPE:            DIIS
 INTERPOLATION STEPS:              2 (START)      1 (STEP)
 LEVEL SHIFTS:                 -0.60 (CLOSED) -0.30 (OPEN) 

 Number of closed-shell orbitals:   15 (   6   2   2   1   2   1   1   0 )
 Number of open-shell orbitals:      3 (   0   1   1   0   1   0   0   0 )


 Orbital guess generated from atomic densities. Full valence occupancy:    9   3   3   2   3   2   2   0


 Molecular orbital dump at record        2120.2

 ITERATION    DDIFF          GRAD             ENERGY        2-EL.EN.            DIPOLE MOMENTS         DIIS   ORB.
    1      0.000D+00      0.000D+00     -4878.70601139   2919.949374    0.00000    0.00000    0.00000    0    start
    2      0.000D+00      0.116D+00     -4880.72759347   3013.482905    0.00000    0.00000    0.00000    1    diag,B
    3      0.284D-01      0.369D-01     -4880.79830779   3000.687070    0.00000    0.00000    0.00000    2    diag,B
    4      0.535D-02      0.290D-02     -4880.80111838   3001.833014    0.00000    0.00000    0.00000    3    diag,B
    5      0.272D-02      0.310D-03     -4880.80114024   3001.987143    0.00000    0.00000    0.00000    4    diag,B
    6      0.324D-03      0.210D-04     -4880.80114033   3001.980519    0.00000    0.00000    0.00000    5    diag,B
    7      0.200D-04      0.257D-05     -4880.80114034   3001.980943    0.00000    0.00000    0.00000    6    fixocc
    8      0.243D-05      0.207D-06     -4880.80114034   3001.980922    0.00000    0.00000    0.00000    0    orth

 **********************************************************************************************************************************
 DATASETS  * FILE   NREC   LENGTH (MB)   RECORD NAMES
              1      19       67.05       500      610      700      900      950      970     1000      129      960     1100   
                                          VAR    BASINP    GEOM    SYMINP    ZMAT    AOBASIS   BASIS     P2S    ABASIS      S 
                                         1400     1410     1200     1210     1080     1600     1650     1700     1380   
                                           T        V       H0       H01     AOSYM     SMH    MOLCAS    OPER     JKOP   

              2      17       40.51       200      700     1000      520     4202     5202     2102     2105     5202(1)  2107   
                                        OPTIONS   GEOM     BASIS   MCVARS     RHF     MCSCF     RHF      RHF     MCSCF     RHF  
                                         2109     2111     2113     2115     2117     2119     2120   
                                          RHF      RHF      RHF      RHF      RHF      RHF      RHF  

 PROGRAMS   *        TOTAL       RHF       RHF       RHF       RHF     MULTI       POP       RHF       RHF     MULTI       POP
 CPU TIMES  *       165.60      1.51      1.00      1.02      0.28      7.50      0.00      1.72      0.67      8.18      0.01
 REAL TIME  *       366.24 SEC
 DISK USED  *         4.16 GB      
 SF USED    *       191.57 MB      
 GA USED    *         0.00 MB       (max)       0.00 MB       (current)
 **********************************************************************************************************************************
 SETTING SCF(13)        =     -4880.80114034  AU                              

 DO I                   =        14.00000000   

 Running procedure=XVIIS2


 PROGRAM * RHF-SCF (CLOSED SHELL)       Authors: W. Meyer, H.-J. Werner


 NUMBER OF ELECTRONS:      15+   15-    SPACE SYMMETRY=1    SPIN SYMMETRY: Singlet 
 CONVERGENCE THRESHOLDS:    1.00E-05 (Density)    1.00E-07 (Energy)
 MAX. NUMBER OF ITERATIONS:       60
 INTERPOLATION TYPE:            DIIS
 INTERPOLATION STEPS:              2 (START)      1 (STEP)
 LEVEL SHIFTS:                  0.00 (CLOSED)  0.00 (OPEN) 



 Orbital guess generated from atomic densities. Full valence occupancy:    9   3   3   2   3   2   2   0


 Molecular orbital dump at record        2121.2

 Initial occupancy:   6   2   2   1   2   1   1   0

 ITERATION    DDIFF          GRAD             ENERGY        2-EL.EN.            DIPOLE MOMENTS         DIIS   ORB.
    1      0.000D+00      0.000D+00     -4842.23648395   2720.816501    0.00000    0.00000    0.00000    0    start
    2      0.000D+00      0.137D+00     -4843.53306354   2796.411120    0.00000    0.00000    0.00000    1    diag
    3      0.368D-01      0.416D-01     -4843.59150673   2781.821112    0.00000    0.00000    0.00000    2    diag
    4      0.311D-02      0.175D-02     -4843.59181925   2782.324191    0.00000    0.00000    0.00000    3    diag
    5      0.109D-02      0.125D-03     -4843.59182045   2782.371860    0.00000    0.00000    0.00000    4    diag
    6      0.720D-04      0.697D-05     -4843.59182046   2782.369542    0.00000    0.00000    0.00000    5    diag
    7      0.265D-05      0.314D-06     -4843.59182046   2782.369640    0.00000    0.00000    0.00000    0    orth

 Final occupancy:   6   2   2   1   2   1   1   0

 !RHF STATE 1.1 Energy              -4843.591820455436
 Nuclear energy                         0.00000000
 One-electron energy                -6234.77664058
 Two-electron energy                 1391.18482013
 Virial quotient                       -1.00000010
 !RHF STATE 1.1 Dipole moment           0.00000000     0.00000000     0.00000000
 Dipole moment /Debye                   0.00000000     0.00000000     0.00000000

 Orbital energies:

         1.1          2.1          3.1          4.1          5.1          6.1          7.1          8.1
   -888.391403  -142.757381   -38.341353   -27.567846   -27.567846   -15.355135   -10.997053   -10.997053

         1.2          2.2          3.2          4.2
   -133.354104   -34.485562   -13.273620    -8.565975

         1.3          2.3          3.3          4.3
   -133.354104   -34.485562   -13.273620    -8.565975

         1.4          2.4          3.4
    -27.567846   -10.997053    -6.458777

         1.5          2.5          3.5          4.5
   -133.354104   -34.485562   -13.273620    -8.565975

         1.6          2.6          3.6
    -27.567846   -10.997053    -6.458777

         1.7          2.7          3.7
    -27.567846   -10.997053    -6.458777

         1.8          2.8
     -8.565975    -5.386274

 HOMO      6.1   -15.355135 =    -417.8345eV
 LUMO      3.3   -13.273620 =    -361.1936eV
 LUMO-HOMO         2.081515 =      56.6409eV


 **********************************************************************************************************************************
 DATASETS  * FILE   NREC   LENGTH (MB)   RECORD NAMES
              1      19       67.05       500      610      700      900      950      970     1000      129      960     1100   
                                          VAR    BASINP    GEOM    SYMINP    ZMAT    AOBASIS   BASIS     P2S    ABASIS      S 
                                         1400     1410     1200     1210     1080     1600     1650     1700     1380   
                                           T        V       H0       H01     AOSYM     SMH    MOLCAS    OPER     JKOP   

              2      18       43.50       200      700     1000      520     4202     5202     2102     2105     5202(1)  2107   
                                        OPTIONS   GEOM     BASIS   MCVARS     RHF     MCSCF     RHF      RHF     MCSCF     RHF  
                                         2109     2111     2113     2115     2117     2119     2120     2121   
                                          RHF      RHF      RHF      RHF      RHF      RHF      RHF      RHF  

 PROGRAMS   *        TOTAL       RHF       RHF       RHF       RHF       RHF     MULTI       POP       RHF       RHF     MULTI
 CPU TIMES  *       166.66      1.00      1.51      1.00      1.02      0.28      7.50      0.00      1.72      0.67      8.18
 REAL TIME  *       368.13 SEC
 DISK USED  *         4.21 GB      
 SF USED    *       191.57 MB      
 GA USED    *         0.00 MB       (max)       0.00 MB       (current)
 **********************************************************************************************************************************
 SETTING SCF(14)        =     -4843.59182046  AU                              
 Output type csv         
                                                                                                                                                                                                                                                                

         SCF
   -4937.920832
   -4937.891036
   -4937.909429
   -4937.893288
   -4937.782850
   -4937.675752
   -4937.549229
   -4937.018471
   -4935.854478
   -4934.135497
   -4931.865469
   -4909.436046
   -4880.801140
   -4843.591820
                                                  

 RHF/USERDEF energy=  -4843.591820455436

        RHF-SCF         RHF-SCF         RHF-SCF         RHF-SCF         RHF-SCF         MULTI           RHF-SCF         RHF-SCF 
  -4843.59182046  -4880.80114034  -4909.43604650  -4931.86546891  -4934.13549714  -4934.13549714  -4934.13931829  -4935.85447755
 **********************************************************************************************************************************
 Molpro calculation terminated
 Variable memory released
