
 Primary working directories    : /global/cscratch1/sd/gwang18
 Secondary working directories  : /global/cscratch1/sd/gwang18
 Wavefunction directory         : /global/homes/g/gwang18/wfu/
 Main file repository           : /global/cscratch1/sd/gwang18/

 SHA1      : 19cd028119e0e09f93f0674bd8af7968d9b3eff6
 NAME      : 2015.1.36
 ARCHNAME  : linux/x86_64
 FC        : /opt/cray/pe/craype/2.5.14/bin/ftn
 BLASLIB   : -L/opt/intel/compilers_and_libraries_2018.1.163/linux/mkl/lib/intel64 -Wl,-_start-group -lmkl_intel_ilp64 -lmkl_intel_thread -lmkl_core -Wl,-_end-group -liomp5
 id        : lbl

 Nodes     nprocs
 nid00749    15
 Number of processes for MPI-2 version of Molpro:   nprocs(total)=   16   nprocs(compute)=   15   nprocs(helper)=    1

 Using customized tuning parameters: mindgm=7; mindgv=16; mindgc=1; mindgr=1; noblas=0; minvec=7
 default implementation of scratch files=sf  

 ***,Te
 memory,512,m
 
 gthresh,twoint=1.e-12
 gprint,basis,orbitals
 
 angstrom
 geometry={
 1                                                                               ! Number of atoms
 Te 0.0 0.0 0.0
 }
 
 
 basis={
 Including file /global/u2/g/gwang18/projects/cc-so-ecp/te/basis/plot-check/cc-basis/ecp.molpro
 Including file /global/u2/g/gwang18/projects/cc-so-ecp/te/basis/plot-check/cc-basis/../../basis/Te.cc-pV5Z.molpro
 }
 
 {rhf
  start,atden
  wf,6,4,2
  occ,1,1,1,0,1,0,0,0
  closed,1,0,0,0,1,0,0,0
  orbital,4202.2
 }
 pop
 {multi
  start,4202.2
  occ,1,1,1,0,1,0,0,0
  closed,1,0,0,0,0,0,0,0
  wf,6,4,2;state,1
  wf,6,6,2;state,1
  wf,6,7,2;state,1
  natorb,ci,print
  orbital,5202.2
 }
 {rhf,nitord=1,maxit=0
  start,5202.2
  wf,6,4,2
  occ,1,1,1,0,1,0,0,0
  closed,1,0,0,0,1,0,0,0
  print,orbitals=2
 }
 scf(1)=energy
 {uccsd(t);maxit,100;core}
 ccsd(1)=energy
 
 
 table,scf,ccsd
 save
 type,csv
 

 Variables initialized (889), CPU time= 0.01 sec
 Commands  initialized (702), CPU time= 0.01 sec, 572 directives.
 Default parameters read. Elapsed time= 0.14 sec

 Checking input...
 Passed
1


                                         ***  PROGRAM SYSTEM MOLPRO  ***
                                       Copyright, TTI GmbH Stuttgart, 2015
                                    Version 2015.1 linked Dec 29 2018 15:55:43


 **********************************************************************************************************************************
 LABEL *   Te                                                                            
  64 bit mpp version                                                                     DATE: 16-Dec-21          TIME: 20:02:44  
 **********************************************************************************************************************************

 SHA1:             19cd028119e0e09f93f0674bd8af7968d9b3eff6
 **********************************************************************************************************************************

 THRESHOLDS:

 ZERO    =  1.00D-12  ONEINT  =  1.00D-12  TWOINT  =  1.00D-12  PREFAC  =  1.00D-14  LOCALI  =  1.00D-09  EORDER  =  1.00D-04
 ENERGY  =  0.00D+00  ETEST   =  0.00D+00  EDENS   =  0.00D+00  THRDEDEF=  1.00D-06  GRADIENT=  1.00D-02  STEP    =  1.00D-03
 ORBITAL =  1.00D-05  CIVEC   =  1.00D-05  COEFF   =  1.00D-04  PRINTCI =  5.00D-02  PUNCHCI =  9.90D+01  OPTGRAD =  3.00D-04
 OPTENERG=  1.00D-06  OPTSTEP =  3.00D-04  THRGRAD =  1.00D-10  COMPRESS=  1.00D-11  VARMIN  =  1.00D-07  VARMAX  =  1.00D-03
 THRDOUB =  0.00D+00  THRDIV  =  1.00D-05  THRRED  =  1.00D-07  THRPSP  =  1.00D+00  THRDC   =  1.00D-10  THRCS   =  1.00D-10
 THRNRM  =  1.00D-08  THREQ   =  0.00D+00  THRDE   =  1.00D+00  THRREF  =  1.00D-05  SPARFAC =  1.00D+00  THRDLP  =  1.00D-07
 THRDIA  =  1.00D-10  THRDLS  =  1.00D-07  THRGPS  =  0.00D+00  THRKEX  =  0.00D+00  THRDIS  =  2.00D-01  THRVAR  =  1.00D-10
 THRLOC  =  1.00D-06  THRGAP  =  1.00D-06  THRLOCT = -1.00D+00  THRGAPT = -1.00D+00  THRORB  =  1.00D-06  THRMLTP =  0.00D+00
 THRCPQCI=  1.00D-10  KEXTA   =  0.00D+00  THRCOARS=  0.00D+00  SYMTOL  =  1.00D-06  GRADTOL =  1.00D-06  THROVL  =  1.00D-08
 THRORTH =  1.00D-08  GRID    =  1.00D-06  GRIDMAX =  1.00D-03  DTMAX   =  0.00D+00  THROCCDE=  1.00D-01  THROCCDE=  1.00D-01



 ZUNIT=ANG
 

Geometry recognized as XYZ


 Variable memory set to  512000000 words,  buffer space   230000 words

 SETTING BASIS          =    USERDEF


 Recomputing integrals since basis changed


 Using spherical harmonics



 PROGRAM * SEWARD (Integral evaluation for generally contracted gaussian basis sets)     Author: Roland Lindh, 1990

 Geometry written to block  1 of record 700

 Orientation using atomic masses  
 Molecule type: Atom
 Symmetry elements: X,Y,Z
 Rotational constants:       0.0000000      0.0000000      0.0000000 GHz  (calculated with average atomic masses)

 Point group  D2h 



 ATOMIC COORDINATES

 NR  ATOM    CHARGE       X              Y              Z

   1  TE      6.00    0.000000000    0.000000000    0.000000000


          TE  CORE POTENTIAL

          f POTENTIAL

 POWERS             1              3              2
 EXPONENTIALS   12.00000       12.00000       12.00000    
 COEFFICIENTS   6.000000       72.00000      -50.50513    

          s - f POTENTIAL

 POWERS             2              2
 EXPONENTIALS   2.656483       2.281974    
 COEFFICIENTS   48.28056      -1.021525    

          p - f POTENTIAL

 POWERS             2              2              2              2
 EXPONENTIALS   2.946988       2.790001       1.750168       1.909579    
 COEFFICIENTS   39.65602       79.54483      -2.600491      -2.728455    

          d - f POTENTIAL

 POWERS             2              2
 EXPONENTIALS   1.107233       1.084059    
 COEFFICIENTS   6.846462       9.411814    


 BASIS DATA

   Nr Sym  Nuc  Type         Exponents   Contraction coefficients

    1.1 Ag    1  1s          61.221383     0.000095
                             29.235423    -0.000554
                             13.960971     0.003321
                              6.666868    -0.022845
                              3.183670     0.181678
                              1.520318    -0.486331
                              0.726007    -0.123985
                              0.346694     0.540846
                              0.165559     0.576067
                              0.079060     0.181822
    2.1 Ag    1  1s           1.286742     1.000000
    3.1 Ag    1  1s           0.556454     1.000000
    4.1 Ag    1  1s           0.240639     1.000000
    5.1 Ag    1  1s           0.104065     1.000000
    6.1 Ag    1  3d0          0.995600     1.000000
    7.1 Ag    1  3d2+         0.995600     1.000000
    8.1 Ag    1  3d0          0.499647     1.000000
    9.1 Ag    1  3d2+         0.499647     1.000000
   10.1 Ag    1  3d0          0.250750     1.000000
   11.1 Ag    1  3d2+         0.250750     1.000000
   12.1 Ag    1  3d0          0.125840     1.000000
   13.1 Ag    1  3d2+         0.125840     1.000000
   14.1 Ag    1  5g0          0.642245     1.000000
   15.1 Ag    1  5g4+         0.642245     1.000000
   16.1 Ag    1  5g2+         0.642245     1.000000
   17.1 Ag    1  5g0          0.297979     1.000000
   18.1 Ag    1  5g4+         0.297979     1.000000
   19.1 Ag    1  5g2+         0.297979     1.000000
    1.2 B3u   1  2px         32.189072    -0.000331
                             15.412922     0.002152
                              7.380087    -0.013183
                              3.533768     0.077631
                              1.692055    -0.217605
                              0.810198    -0.015684
                              0.387943     0.319583
                              0.185757     0.473258
                              0.088945     0.308320
                              0.042589     0.065951
    2.2 B3u   1  2px          1.346231     1.000000
    3.2 B3u   1  2px          0.520144     1.000000
    4.2 B3u   1  2px          0.200968     1.000000
    5.2 B3u   1  2px          0.077648     1.000000
    6.2 B3u   1  4f1+         0.625989     1.000000
    7.2 B3u   1  4f3+         0.625989     1.000000
    8.2 B3u   1  4f1+         0.323969     1.000000
    9.2 B3u   1  4f3+         0.323969     1.000000
   10.2 B3u   1  4f1+         0.167664     1.000000
   11.2 B3u   1  4f3+         0.167664     1.000000
   12.2 B3u   1  6h1+         0.554368     1.000000
   13.2 B3u   1  6h3+         0.554368     1.000000
   14.2 B3u   1  6h5+         0.554368     1.000000
    1.3 B2u   1  2py         32.189072    -0.000331
                             15.412922     0.002152
                              7.380087    -0.013183
                              3.533768     0.077631
                              1.692055    -0.217605
                              0.810198    -0.015684
                              0.387943     0.319583
                              0.185757     0.473258
                              0.088945     0.308320
                              0.042589     0.065951
    2.3 B2u   1  2py          1.346231     1.000000
    3.3 B2u   1  2py          0.520144     1.000000
    4.3 B2u   1  2py          0.200968     1.000000
    5.3 B2u   1  2py          0.077648     1.000000
    6.3 B2u   1  4f1-         0.625989     1.000000
    7.3 B2u   1  4f3-         0.625989     1.000000
    8.3 B2u   1  4f1-         0.323969     1.000000
    9.3 B2u   1  4f3-         0.323969     1.000000
   10.3 B2u   1  4f1-         0.167664     1.000000
   11.3 B2u   1  4f3-         0.167664     1.000000
   12.3 B2u   1  6h1-         0.554368     1.000000
   13.3 B2u   1  6h3-         0.554368     1.000000
   14.3 B2u   1  6h5-         0.554368     1.000000
    1.4 B1g   1  3d2-         0.995600     1.000000
    2.4 B1g   1  3d2-         0.499647     1.000000
    3.4 B1g   1  3d2-         0.250750     1.000000
    4.4 B1g   1  3d2-         0.125840     1.000000
    5.4 B1g   1  5g2-         0.642245     1.000000
    6.4 B1g   1  5g4-         0.642245     1.000000
    7.4 B1g   1  5g2-         0.297979     1.000000
    8.4 B1g   1  5g4-         0.297979     1.000000
    1.5 B1u   1  2pz         32.189072    -0.000331
                             15.412922     0.002152
                              7.380087    -0.013183
                              3.533768     0.077631
                              1.692055    -0.217605
                              0.810198    -0.015684
                              0.387943     0.319583
                              0.185757     0.473258
                              0.088945     0.308320
                              0.042589     0.065951
    2.5 B1u   1  2pz          1.346231     1.000000
    3.5 B1u   1  2pz          0.520144     1.000000
    4.5 B1u   1  2pz          0.200968     1.000000
    5.5 B1u   1  2pz          0.077648     1.000000
    6.5 B1u   1  4f0          0.625989     1.000000
    7.5 B1u   1  4f2+         0.625989     1.000000
    8.5 B1u   1  4f0          0.323969     1.000000
    9.5 B1u   1  4f2+         0.323969     1.000000
   10.5 B1u   1  4f0          0.167664     1.000000
   11.5 B1u   1  4f2+         0.167664     1.000000
   12.5 B1u   1  6h2+         0.554368     1.000000
   13.5 B1u   1  6h4+         0.554368     1.000000
   14.5 B1u   1  6h0          0.554368     1.000000
    1.6 B2g   1  3d1+         0.995600     1.000000
    2.6 B2g   1  3d1+         0.499647     1.000000
    3.6 B2g   1  3d1+         0.250750     1.000000
    4.6 B2g   1  3d1+         0.125840     1.000000
    5.6 B2g   1  5g1+         0.642245     1.000000
    6.6 B2g   1  5g3+         0.642245     1.000000
    7.6 B2g   1  5g1+         0.297979     1.000000
    8.6 B2g   1  5g3+         0.297979     1.000000
    1.7 B3g   1  3d1-         0.995600     1.000000
    2.7 B3g   1  3d1-         0.499647     1.000000
    3.7 B3g   1  3d1-         0.250750     1.000000
    4.7 B3g   1  3d1-         0.125840     1.000000
    5.7 B3g   1  5g1-         0.642245     1.000000
    6.7 B3g   1  5g3-         0.642245     1.000000
    7.7 B3g   1  5g1-         0.297979     1.000000
    8.7 B3g   1  5g3-         0.297979     1.000000
    1.8 Au    1  4f2-         0.625989     1.000000
    2.8 Au    1  4f2-         0.323969     1.000000
    3.8 Au    1  4f2-         0.167664     1.000000
    4.8 Au    1  6h4-         0.554368     1.000000
    5.8 Au    1  6h2-         0.554368     1.000000

 NUCLEAR CHARGE:                    6
 NUMBER OF PRIMITIVE AOS:         161
 NUMBER OF SYMMETRY AOS:          126
 NUMBER OF CONTRACTIONS:           90   (  19Ag  +  14B3u +  14B2u +   8B1g +  14B1u +   8B2g +   8B3g +   5Au  )
 NUMBER OF CORE ORBITALS:           0   (   0Ag  +   0B3u +   0B2u +   0B1g +   0B1u +   0B2g +   0B3g +   0Au  )
 NUMBER OF VALENCE ORBITALS:        4   (   1Ag  +   1B3u +   1B2u +   0B1g +   1B1u +   0B2g +   0B3g +   0Au  )


 NUCLEAR REPULSION ENERGY    0.00000000

 EXTRA SYMMETRY OF AOS IN SYMMETRY 1:   1 1 1 1 1 2 3 2 3 2   3 2 3 4 5 6 4 5 6
 EXTRA SYMMETRY OF AOS IN SYMMETRY 2:   1 1 1 1 1 2 3 2 3 2   3 4 5 6
 EXTRA SYMMETRY OF AOS IN SYMMETRY 3:   1 1 1 1 1 2 3 2 3 2   3 4 5 6
 EXTRA SYMMETRY OF AOS IN SYMMETRY 4:   1 1 1 1 2 3 2 3
 EXTRA SYMMETRY OF AOS IN SYMMETRY 5:   1 1 1 1 1 2 3 2 3 2   3 4 5 6
 EXTRA SYMMETRY OF AOS IN SYMMETRY 6:   1 1 1 1 2 3 2 3
 EXTRA SYMMETRY OF AOS IN SYMMETRY 7:   1 1 1 1 2 3 2 3
 EXTRA SYMMETRY OF AOS IN SYMMETRY 8:   1 1 1 2 3

 Eigenvalues of metric

         1 0.698E-03 0.116E-01 0.232E-01 0.232E-01 0.116E+00 0.194E+00 0.194E+00 0.327E+00
         2 0.311E-03 0.504E-01 0.700E-01 0.700E-01 0.289E+00 0.599E+00 0.599E+00 0.100E+01
         3 0.311E-03 0.504E-01 0.700E-01 0.700E-01 0.289E+00 0.599E+00 0.599E+00 0.100E+01
         4 0.232E-01 0.194E+00 0.327E+00 0.327E+00 0.961E+00 0.167E+01 0.167E+01 0.282E+01
         5 0.311E-03 0.504E-01 0.700E-01 0.700E-01 0.289E+00 0.599E+00 0.599E+00 0.100E+01
         6 0.232E-01 0.194E+00 0.327E+00 0.327E+00 0.961E+00 0.167E+01 0.167E+01 0.282E+01
         7 0.232E-01 0.194E+00 0.327E+00 0.327E+00 0.961E+00 0.167E+01 0.167E+01 0.282E+01
         8 0.700E-01 0.599E+00 0.100E+01 0.100E+01 0.233E+01


 Contracted 2-electron integrals neglected if value below      1.0D-12
 AO integral compression algorithm  1   Integral accuracy      1.0D-12

     11.272 MB (compressed) written to integral file ( 80.2%)

     Node minimum: 0.262 MB, node maximum: 1.049 MB


 NUMBER OF SORTED TWO-ELECTRON INTEGRALS:      75648.     BUFFER LENGTH:  32768
 NUMBER OF SEGMENTS:   1  SEGMENT LENGTH:      75648      RECORD LENGTH: 524288

 Memory used in sort:       0.63 MW

 SORT1 READ     1797248. AND WROTE       53130. INTEGRALS IN      1 RECORDS. CPU TIME:     0.06 SEC, REAL TIME:     0.12 SEC
 SORT2 READ      785431. AND WROTE     1106050. INTEGRALS IN     45 RECORDS. CPU TIME:     0.01 SEC, REAL TIME:     0.03 SEC

 Node minimum:       67730.  Node maximum:       80004. integrals

 OPERATOR DM      FOR CENTER  0  COORDINATES:    0.000000    0.000000    0.000000


 **********************************************************************************************************************************
 DATASETS  * FILE   NREC   LENGTH (MB)   RECORD NAMES
              1      19       19.95       500      610      700      900      950      970     1000      129      960     1100   
                                          VAR    BASINP    GEOM    SYMINP    ZMAT    AOBASIS   BASIS     P2S    ABASIS      S 
                                         1400     1410     1420     1200     1210     1080     1600     1650     1700   
                                           T        V       ECP      H0       H01     AOSYM     SMH    MOLCAS    OPER   

 PROGRAMS   *        TOTAL       INT
 CPU TIMES  *         1.02      0.51
 REAL TIME  *         2.20 SEC
 DISK USED  *        70.73 MB      
 GA USED    *         0.00 MB       (max)       0.00 MB       (current)
 **********************************************************************************************************************************


 PROGRAM * RHF-SCF (OPEN SHELL)       Authors: W. Meyer, H.-J. Werner


 NUMBER OF ELECTRONS:       4+    2-    SPACE SYMMETRY=4    SPIN SYMMETRY: Triplet 
 CONVERGENCE THRESHOLDS:    1.00E-05 (Density)    1.00E-07 (Energy)
 MAX. NUMBER OF ITERATIONS:       60
 INTERPOLATION TYPE:            DIIS
 INTERPOLATION STEPS:              2 (START)      1 (STEP)
 LEVEL SHIFTS:                 -0.60 (CLOSED) -0.30 (OPEN) 

 Number of closed-shell orbitals:    2 (   1   0   0   0   1   0   0   0 )
 Number of open-shell orbitals:      2 (   0   1   1   0   0   0   0   0 )



   Atom=TE basis=ECP46MDF_GUESS    lmin=0  lmax=1

 Orbital guess generated from atomic densities. Full valence occupancy:    1   1   1   0   1   0   0   0


 Molecular orbital dump at record        4202.2

 ITERATION    DDIFF          GRAD             ENERGY        2-EL.EN.            DIPOLE MOMENTS         DIIS   ORB.
    1      0.000D+00      0.000D+00        -8.00499540      9.917831    0.00000    0.00000    0.00000    0    start
    2      0.000D+00      0.470D-02        -8.00885635     10.008286    0.00000    0.00000    0.00000    1    diag,B
    3      0.438D-02      0.170D-02        -8.00967211     10.056549    0.00000    0.00000    0.00000    2    diag,B
    4      0.248D-02      0.476D-03        -8.00973502     10.066343    0.00000    0.00000    0.00000    3    diag,B
    5      0.116D-02      0.986D-04        -8.00973717     10.066319    0.00000    0.00000    0.00000    4    diag,B
    6      0.232D-03      0.333D-04        -8.00973745     10.065954    0.00000    0.00000    0.00000    5    diag,B
    7      0.965D-04      0.877D-05        -8.00973747     10.065798    0.00000    0.00000    0.00000    6    fixocc
    8      0.211D-04      0.236D-05        -8.00973747     10.065792    0.00000    0.00000    0.00000    7    diag,B
    9      0.600D-05      0.565D-06        -8.00973747     10.065794    0.00000    0.00000    0.00000    0    orth

 Final alpha occupancy:   1   1   1   0   1   0   0   0
 Final beta  occupancy:   1   0   0   0   1   0   0   0

 !RHF STATE 1.4 Energy                 -8.009737466563
 Nuclear energy                         0.00000000
 One-electron energy                  -13.04263442
 Two-electron energy                    5.03289695
 Virial quotient                       -3.11147320
 !RHF STATE 1.4 Dipole moment           0.00000000     0.00000000     0.00000000
 Dipole moment /Debye                   0.00000000     0.00000000     0.00000000

 ELECTRON ORBITALS
 =================


   Orb  Occ    Energy  Couls-En    Coefficients

                                   1 1s      1 1s      1 1s      1 1s      1 1s      1 3d0     1 3d2+    1 3d0     1 3d2+    1 3d0  
                                   1 3d2+    1 3d0     1 3d2+    1 5g0     1 5g4+    1 5g2+    1 5g0     1 5g4+    1 5g2+ 

   1.1   2    -0.7638   -3.2952  0.999953  0.000048 -0.000312  0.000647 -0.000407 -0.000082 -0.000000 -0.000514  0.000000 -0.000977
                                -0.000000  0.007866  0.000000  0.000025 -0.000000  0.000000 -0.000028 -0.000000 -0.000000

                                   1 2px     1 2px     1 2px     1 2px     1 2px     1 4f1+    1 4f3+    1 4f1+    1 4f3+    1 4f1+ 
                                   1 4f3+    1 6h1+    1 6h3+    1 6h5+ 

   1.2   +    -0.3974   -2.4042  1.015363  0.000444 -0.004374  0.021607 -0.039177 -0.005159  0.000000 -0.009516 -0.000000 -0.012565
                                 0.000000  0.000329 -0.000000 -0.000000

                                   1 2py     1 2py     1 2py     1 2py     1 2py     1 4f1-    1 4f3-    1 4f1-    1 4f3-    1 4f1- 
                                   1 4f3-    1 6h1-    1 6h3-    1 6h5- 

   1.3   +    -0.3974   -2.4042  1.015363  0.000444 -0.004374  0.021607 -0.039177 -0.005159 -0.000000 -0.009516  0.000000 -0.012565
                                -0.000000  0.000329  0.000000 -0.000000

                                   1 2pz     1 2pz     1 2pz     1 2pz     1 2pz     1 4f0     1 4f2+    1 4f0     1 4f2+    1 4f0  
                                   1 4f2+    1 6h2+    1 6h4+    1 6h0  

   1.5   2    -0.3272   -2.3104  0.986977 -0.000169  0.004284 -0.022861  0.036930 -0.002782 -0.000000 -0.004382  0.000000 -0.007866
                                 0.000000 -0.000000  0.000000  0.000076

 HOMO      1.5    -0.327206 =      -8.9037eV
 LUMO      2.1     0.237922 =       6.4742eV
 LUMO-HOMO         0.565128 =      15.3779eV


 **********************************************************************************************************************************
 DATASETS  * FILE   NREC   LENGTH (MB)   RECORD NAMES
              1      19       19.95       500      610      700      900      950      970     1000      129      960     1100   
                                          VAR    BASINP    GEOM    SYMINP    ZMAT    AOBASIS   BASIS     P2S    ABASIS      S 
                                         1400     1410     1420     1200     1210     1080     1600     1650     1700   
                                           T        V       ECP      H0       H01     AOSYM     SMH    MOLCAS    OPER   

              2       4        2.79       700     1000      520     4202   
                                         GEOM     BASIS   MCVARS     RHF  

 PROGRAMS   *        TOTAL       RHF       INT
 CPU TIMES  *         1.09      0.07      0.51
 REAL TIME  *         2.42 SEC
 DISK USED  *       415.07 MB      
 SF USED    *         0.01 MB      
 GA USED    *         0.00 MB       (max)       0.00 MB       (current)
 **********************************************************************************************************************************


 PROGRAM * POP (Mulliken population analysis)

 
 Density matrix read from record         4202.2  Type=RHF/CHARGE (state 1.4)
 
 Population analysis by basis function type

 Unique atom        s        p        d        f        g    Total    Charge
   1  TE      1.99990  3.99846  0.00010  0.00154  0.00000  6.00000  - 0.00000


 **********************************************************************************************************************************
 DATASETS  * FILE   NREC   LENGTH (MB)   RECORD NAMES
              1      19       19.95       500      610      700      900      950      970     1000      129      960     1100   
                                          VAR    BASINP    GEOM    SYMINP    ZMAT    AOBASIS   BASIS     P2S    ABASIS      S 
                                         1400     1410     1420     1200     1210     1080     1600     1650     1700   
                                           T        V       ECP      H0       H01     AOSYM     SMH    MOLCAS    OPER   

              2       4        2.79       700     1000      520     4202   
                                         GEOM     BASIS   MCVARS     RHF  

 PROGRAMS   *        TOTAL       POP       RHF       INT
 CPU TIMES  *         1.10      0.00      0.07      0.51
 REAL TIME  *         2.46 SEC
 DISK USED  *       415.07 MB      
 SF USED    *         0.01 MB      
 GA USED    *         0.00 MB       (max)       0.00 MB       (current)
 **********************************************************************************************************************************


 PROGRAM * MULTI (Direct Multiconfiguration SCF)       Authors: P.J. Knowles, H.-J. Werner (1984)     S.T. Elbert (1988)


 Number of closed-shell orbitals:   1 (   1   0   0   0   0   0   0   0 )
 Number of active  orbitals:        3 (   0   1   1   0   1   0   0   0 )
 Number of external orbitals:      86 (  18  13  13   8  13   8   8   5 )

 State symmetry 1

 Number of electrons:     4    Spin symmetry=Triplet   Space symmetry=4
 Number of states:        1
 Number of CSFs:          1   (1 determinants, 3 intermediate states)

 State symmetry 2

 Number of electrons:     4    Spin symmetry=Triplet   Space symmetry=6
 Number of states:        1
 Number of CSFs:          1   (1 determinants, 3 intermediate states)

 State symmetry 3

 Number of electrons:     4    Spin symmetry=Triplet   Space symmetry=7
 Number of states:        1
 Number of CSFs:          1   (1 determinants, 3 intermediate states)

 Molecular orbitals read from record     4202.2  Type=RHF/CANONICAL (state 1.4)
 *** IN SYMMETRY 1 ORBITAL  1 SYMMETRY CONTAMINATION OF 0.939D-02 HAS BEEN REMOVED

 EXTRA SYMMETRY OF MOS IN SYMMETRY 1:   1 3 2 1 3 2 5 6 4 1   3 2 5 6 4 3 2 1 1
 *** IN SYMMETRY 2 ORBITAL  1 SYMMETRY CONTAMINATION OF 0.249D-01 HAS BEEN REMOVED
 EXTRA SYMMETRY OF MOS IN SYMMETRY 2:   1 1 3 2 3 2 1 3 2 6   5 4 1 1
 *** IN SYMMETRY 3 ORBITAL  1 SYMMETRY CONTAMINATION OF 0.249D-01 HAS BEEN REMOVED
 EXTRA SYMMETRY OF MOS IN SYMMETRY 3:   1 1 3 2 3 2 1 3 2 6   5 4 1 1
 EXTRA SYMMETRY OF MOS IN SYMMETRY 4:   1 1 3 2 1 3 2 1
 *** IN SYMMETRY 5 ORBITAL  1 SYMMETRY CONTAMINATION OF 0.142D-01 HAS BEEN REMOVED
 EXTRA SYMMETRY OF MOS IN SYMMETRY 5:   1 1 3 2 3 2 1 3 2 5   4 6 1 1
 EXTRA SYMMETRY OF MOS IN SYMMETRY 6:   1 1 3 2 1 3 2 1
 EXTRA SYMMETRY OF MOS IN SYMMETRY 7:   1 1 3 2 1 3 2 1
 EXTRA SYMMETRY OF MOS IN SYMMETRY 8:   1 1 1 2 3

 Wavefunction dump at record             5202.2

 Convergence thresholds  0.10E-01 (gradient)  0.10E-05 (energy)  0.10E-02 (step length)

 Weight factors for state symmetry  1:    0.33333
 Weight factors for state symmetry  2:    0.33333
 Weight factors for state symmetry  3:    0.33333

 Number of orbital rotations:       57   (     0 Core/Active     18 Core/Virtual   0 Active/Active     39 Active/Virtual)
 Total number of variables:         60


 ITER. MIC  NCI  NEG     ENERGY(VAR)     ENERGY(PROJ)   ENERGY CHANGE     GRAD(0)  GRAD(ORB)   GRAD(CI)     STEP       TIME

   1   21   12    0      -8.00660572      -8.00739174   -0.00078602    0.02277723 0.00000000 0.00000000  0.37D-01      0.04
   2   12   12    0      -8.00739368      -8.00739369   -0.00000001    0.00011437 0.00000000 0.00000000  0.15D-03      0.07
   3   14   12    0      -8.00739369      -8.00739369   -0.00000000    0.00000000 0.00000000 0.00000000  0.34D-08      0.09

 ** WVFN ****  CONVERGENCE REACHED, FINAL GRADIENT:  0.71D-13



 Results for state 1.4
 =====================

 !MCSCF STATE 1.4 Energy               -8.007393691784
 Nuclear energy                         0.00000000
 Kinetic energy                         2.57157567
 One electron energy                  -13.04444472
 Two electron energy                    5.03705102
 Virial ratio                           4.11380832

 !MCSCF STATE 1.4 Dipole moment         0.00000000     0.00000000     0.00000000
 Dipole moment /Debye                   0.00000000     0.00000000     0.00000000



 Results for state 1.6
 =====================

 !MCSCF STATE 1.6 Energy               -8.007393691784
 Nuclear energy                         0.00000000
 Kinetic energy                         2.57157567
 One electron energy                  -13.04444472
 Two electron energy                    5.03705102
 Virial ratio                           4.11380832

 !MCSCF STATE 1.6 Dipole moment         0.00000000     0.00000000     0.00000000
 Dipole moment /Debye                   0.00000000     0.00000000     0.00000000



 Results for state 1.7
 =====================

 !MCSCF STATE 1.7 Energy               -8.007393691784
 Nuclear energy                         0.00000000
 Kinetic energy                         2.57157567
 One electron energy                  -13.04444472
 Two electron energy                    5.03705102
 Virial ratio                           4.11380832

 !MCSCF STATE 1.7 Dipole moment         0.00000000     0.00000000     0.00000000
 Dipole moment /Debye                   0.00000000     0.00000000     0.00000000

 State-averaged charge density matrix saved on record  5202.2 (density set 1)


 NATURAL ORBITALS (state averaged)
 =================================

   Orb     Occ        Energy       Coefficients

                                   1 1s      1 1s      1 1s      1 1s      1 1s      1 3d0     1 3d2+    1 3d0     1 3d2+    1 3d0  
                                   1 3d2+    1 3d0     1 3d2+    1 5g0     1 5g4+    1 5g2+    1 5g0     1 5g4+    1 5g2+ 

   1.1  2.00000    -0.763903     0.999959  0.000034 -0.000193  0.000350 -0.000177  0.000000  0.000000  0.000000  0.000000  0.000000
                                 0.000000  0.000000  0.000000  0.000000  0.000000  0.000000  0.000000  0.000000  0.000000

                                   1 2px     1 2px     1 2px     1 2px     1 2px     1 4f1+    1 4f3+    1 4f1+    1 4f3+    1 4f1+ 
                                   1 4f3+    1 6h1+    1 6h3+    1 6h5+ 

   1.2  1.33333    -0.240643     1.000248  0.000051 -0.000070 -0.000134 -0.000095  0.000000  0.000000  0.000000  0.000000  0.000000
                                 0.000000  0.000000  0.000000  0.000000

                                   1 2py     1 2py     1 2py     1 2py     1 2py     1 4f1-    1 4f3-    1 4f1-    1 4f3-    1 4f1- 
                                   1 4f3-    1 6h1-    1 6h3-    1 6h5- 

   1.3  1.33333    -0.240643     1.000248  0.000051 -0.000070 -0.000134 -0.000095  0.000000  0.000000  0.000000  0.000000  0.000000
                                 0.000000  0.000000  0.000000  0.000000

                                   1 2pz     1 2pz     1 2pz     1 2pz     1 2pz     1 4f0     1 4f2+    1 4f0     1 4f2+    1 4f0  
                                   1 4f2+    1 6h2+    1 6h4+    1 6h0  

   1.5  1.33333    -0.240643     1.000248  0.000051 -0.000070 -0.000134 -0.000095  0.000000  0.000000  0.000000  0.000000  0.000000
                                 0.000000  0.000000  0.000000  0.000000
 

 EXTRA SYMMETRY OF MOS IN SYMMETRY 1:   1 3 2 1 2 3 6 4 5 1   2 3 6 4 5 2 3 1 1
 EXTRA SYMMETRY OF MOS IN SYMMETRY 2:   1 1 2 3 2 3 1 2 3 5   6 4 1 1
 EXTRA SYMMETRY OF MOS IN SYMMETRY 3:   1 1 2 3 2 3 1 2 3 5   6 4 1 1
 EXTRA SYMMETRY OF MOS IN SYMMETRY 4:   1 1 2 3 1 2 3 1
 EXTRA SYMMETRY OF MOS IN SYMMETRY 5:   1 1 2 3 2 3 1 3 2 6   4 5 1 1
 EXTRA SYMMETRY OF MOS IN SYMMETRY 8:   1 1 1 3 2

 Natural orbital dump (state averaged) at molpro section  5202.2    (Orbital set 2)


 CI vector for state symmetry 1
 ==============================

 a a 2           1.0000000

 TOTAL ENERGIES                        -8.00739369

 CI vector for state symmetry 2
 ==============================

 a 2 a           1.0000000

 TOTAL ENERGIES                        -8.00739369

 CI vector for state symmetry 3
 ==============================

 2 a a           1.0000000

 TOTAL ENERGIES                        -8.00739369



 **********************************************************************************************************************************
 DATASETS  * FILE   NREC   LENGTH (MB)   RECORD NAMES
              1      20       20.10       500      610      700      900      950      970     1000      129      960     1100   
                                          VAR    BASINP    GEOM    SYMINP    ZMAT    AOBASIS   BASIS     P2S    ABASIS      S 
                                         1400     1410     1420     1200     1210     1080     1600     1650     1700     1380   
                                           T        V       ECP      H0       H01     AOSYM     SMH    MOLCAS    OPER     JKOP   

              2       5        5.32       700     1000      520     4202     5202   
                                         GEOM     BASIS   MCVARS     RHF     MCSCF   

 PROGRAMS   *        TOTAL     MULTI       POP       RHF       INT
 CPU TIMES  *         1.25      0.16      0.00      0.07      0.51
 REAL TIME  *         3.55 SEC
 DISK USED  *       415.07 MB      
 SF USED    *         9.43 MB      
 GA USED    *         0.00 MB       (max)       0.00 MB       (current)
 **********************************************************************************************************************************


 PROGRAM * RHF-SCF (OPEN SHELL)       Authors: W. Meyer, H.-J. Werner


 NUMBER OF ELECTRONS:       4+    2-    SPACE SYMMETRY=4    SPIN SYMMETRY: Triplet 
 CONVERGENCE THRESHOLDS:    1.00E-05 (Density)    1.00E-07 (Energy)
 MAX. NUMBER OF ITERATIONS:        0
 INTERPOLATION TYPE:            DIIS
 INTERPOLATION STEPS:              2 (START)      1 (STEP)
 LEVEL SHIFTS:                 -0.60 (CLOSED) -0.30 (OPEN) 

 Number of closed-shell orbitals:    2 (   1   0   0   0   1   0   0   0 )
 Number of open-shell orbitals:      2 (   0   1   1   0   0   0   0   0 )


 Molecular orbitals read from record     5202.2  Type=MCSCF/NATURAL (state averaged)

 Molecular orbital dump at record        2101.2

 ITERATION    DDIFF          GRAD             ENERGY        2-EL.EN.            DIPOLE MOMENTS         DIIS   ORB.
    1      0.000D+00      0.000D+00        -8.00739369     10.074102    0.00000    0.00000    0.00000    0    start

 Final alpha occupancy:   1   1   1   0   1   0   0   0
 Final beta  occupancy:   1   0   0   0   1   0   0   0

 !RHF STATE 1.4 Energy                 -8.007393691784
 Nuclear energy                         0.00000000
 One-electron energy                  -13.04444472
 Two-electron energy                    5.03705102
 Virial quotient                       -3.11380832
 !RHF STATE 1.4 Dipole moment           0.00000000     0.00000000     0.00000000
 Dipole moment /Debye                   0.00000000     0.00000000     0.00000000

 ELECTRON ORBITALS
 =================


   Orb  Occ    Energy  Couls-En    Coefficients

                                   1 1s      1 1s      1 1s      1 1s      1 1s      1 3d0     1 3d2+    1 3d0     1 3d2+    1 3d0  
                                   1 3d2+    1 3d0     1 3d2+    1 5g0     1 5g4+    1 5g2+    1 5g0     1 5g4+    1 5g2+ 

   1.1   2    -0.7639   -3.2953  0.999959  0.000034 -0.000193  0.000350 -0.000177  0.000000  0.000000  0.000000  0.000000  0.000000
                                 0.000000  0.000000  0.000000  0.000000  0.000000  0.000000  0.000000  0.000000  0.000000

   2.1   0     0.2750   -0.9609  0.000000  0.000000  0.000000  0.000000  0.000000  0.000000 -0.086668  0.000000  0.276816  0.000000
                                -0.563503  0.000000  1.333301  0.000000  0.000000  0.000000  0.000000  0.000000  0.000000

   3.1   0     0.2750   -0.9609  0.000000  0.000000  0.000000  0.000000  0.000000 -0.086668  0.000000  0.276816  0.000000 -0.563503
                                 0.000000  1.333301  0.000000  0.000000  0.000000  0.000000  0.000000  0.000000  0.000000

                                   1 2px     1 2px     1 2px     1 2px     1 2px     1 4f1+    1 4f3+    1 4f1+    1 4f3+    1 4f1+ 
                                   1 4f3+    1 6h1+    1 6h3+    1 6h5+ 

   1.2   +    -0.2406   -2.2360  1.000248  0.000051 -0.000070 -0.000134 -0.000095  0.000000  0.000000  0.000000  0.000000  0.000000
                                 0.000000  0.000000  0.000000  0.000000

   2.2   0     0.3042   -0.8163 -0.136149  0.045180  0.194867 -1.481424  1.650461  0.000000  0.000000  0.000000  0.000000  0.000000
                                 0.000000  0.000000  0.000000  0.000000

   3.2   0     0.5747   -0.3919  0.000000  0.000000  0.000000  0.000000  0.000000  0.210157  0.000000 -0.556378  0.000000  1.330745
                                 0.000000  0.000000  0.000000  0.000000

                                   1 2py     1 2py     1 2py     1 2py     1 2py     1 4f1-    1 4f3-    1 4f1-    1 4f3-    1 4f1- 
                                   1 4f3-    1 6h1-    1 6h3-    1 6h5- 

   1.3   +    -0.2406   -2.2360  1.000248  0.000051 -0.000070 -0.000134 -0.000095  0.000000  0.000000  0.000000  0.000000  0.000000
                                 0.000000  0.000000  0.000000  0.000000

   2.3   0     0.3042   -0.8163 -0.136149  0.045180  0.194867 -1.481424  1.650461  0.000000  0.000000  0.000000  0.000000  0.000000
                                 0.000000  0.000000  0.000000  0.000000

   3.3   0     0.5747   -0.3919  0.000000  0.000000  0.000000  0.000000  0.000000  0.210157  0.000000 -0.556378  0.000000  1.330745
                                 0.000000  0.000000  0.000000  0.000000

                                   1 3d2-    1 3d2-    1 3d2-    1 3d2-    1 5g2-    1 5g4-    1 5g2-    1 5g4- 

   1.4   0     0.2750   -0.9609 -0.086668  0.276816 -0.563503  1.333301  0.000000  0.000000  0.000000  0.000000

   2.4   0     0.8646   -0.0665  0.120463 -0.838273  2.610523 -1.591510  0.000000  0.000000  0.000000  0.000000

                                   1 2pz     1 2pz     1 2pz     1 2pz     1 2pz     1 4f0     1 4f2+    1 4f0     1 4f2+    1 4f0  
                                   1 4f2+    1 6h2+    1 6h4+    1 6h0  

   1.5   2    -0.2406   -2.2360  1.000248  0.000051 -0.000070 -0.000134 -0.000095  0.000000  0.000000  0.000000  0.000000  0.000000
                                 0.000000  0.000000  0.000000  0.000000

   2.5   0     0.3042   -0.8163 -0.136149  0.045180  0.194867 -1.481424  1.650461  0.000000  0.000000  0.000000  0.000000  0.000000
                                 0.000000  0.000000  0.000000  0.000000

   3.5   0     0.5747   -0.3919  0.000000  0.000000  0.000000  0.000000  0.000000  0.210157  0.000000 -0.556378  0.000000  1.330745
                                 0.000000  0.000000  0.000000  0.000000

                                   1 3d1+    1 3d1+    1 3d1+    1 3d1+    1 5g1+    1 5g3+    1 5g1+    1 5g3+ 

   1.6   0     0.2750   -0.9609 -0.086668  0.276816 -0.563503  1.333301  0.000000  0.000000  0.000000  0.000000

   2.6   0     0.8646   -0.0665  0.120463 -0.838273  2.610523 -1.591510  0.000000  0.000000  0.000000  0.000000

                                   1 3d1-    1 3d1-    1 3d1-    1 3d1-    1 5g1-    1 5g3-    1 5g1-    1 5g3- 

   1.7   0     0.2750   -0.9609 -0.086668  0.276816 -0.563503  1.333301  0.000000  0.000000  0.000000  0.000000

   2.7   0     0.8646   -0.0665  0.120463 -0.838273  2.610523 -1.591510  0.000000  0.000000  0.000000  0.000000

                                   1 4f2-    1 4f2-    1 4f2-    1 6h4-    1 6h2- 

   1.8   0     0.5747   -0.3919  0.210157 -0.556378  1.330745  0.000000  0.000000

   2.8   0     1.3948    0.7814 -0.192534  1.819843 -1.161169  0.000000  0.000000

 HOMO      1.2    -0.240643 =      -6.5482eV
 LUMO      2.1     0.274995 =       7.4830eV
 LUMO-HOMO         0.515638 =      14.0312eV


 **********************************************************************************************************************************
 DATASETS  * FILE   NREC   LENGTH (MB)   RECORD NAMES
              1      20       20.10       500      610      700      900      950      970     1000      129      960     1100   
                                          VAR    BASINP    GEOM    SYMINP    ZMAT    AOBASIS   BASIS     P2S    ABASIS      S 
                                         1400     1410     1420     1200     1210     1080     1600     1650     1700     1380   
                                           T        V       ECP      H0       H01     AOSYM     SMH    MOLCAS    OPER     JKOP   

              2       6        7.87       700     1000      520     4202     5202     2101   
                                         GEOM     BASIS   MCVARS     RHF     MCSCF     RHF  

 PROGRAMS   *        TOTAL       RHF     MULTI       POP       RHF       INT
 CPU TIMES  *         1.33      0.06      0.16      0.00      0.07      0.51
 REAL TIME  *         3.85 SEC
 DISK USED  *       415.07 MB      
 SF USED    *         9.43 MB      
 GA USED    *         0.00 MB       (max)       0.00 MB       (current)
 **********************************************************************************************************************************
 SETTING SCF(1)         =        -8.00739369  AU                              


 PROGRAM * CCSD (Unrestricted open-shell coupled cluster)     Authors: C. Hampel, H.-J. Werner, 1991, M. Deegan, P.J. Knowles, 1992


 Convergence thresholds:  THRVAR = 1.00D-08  THRDEN = 1.00D-06

 CCSD(T)     terms to be evaluated (factor= 1.000)


 Number of closed-shell orbitals:   2 (   1   0   0   0   1   0   0   0 )
 Number of active  orbitals:        2 (   0   1   1   0   0   0   0   0 )
 Number of external orbitals:      86 (  18  13  13   8  13   8   8   5 )

 Memory could be reduced to 1.22 Mwords without degradation in triples

 Number of N-1 electron functions:               6
 Number of N-2 electron functions:              15
 Number of singly external CSFs:                90
 Number of doubly external CSFs:             11469
 Total number of CSFs:                       11559

 Molecular orbitals read from record     2101.2  Type=RHF/CANONICAL (state 1.4)

 Integral transformation finished. Total CPU:   0.12 sec, npass=  1  Memory used:   0.21 MW

 Starting RMP2 calculation

 ITER.      SQ.NORM     CORR.ENERGY   TOTAL ENERGY   ENERGY CHANGE        DEN1      VAR(S)    VAR(P)  DIIS     TIME
   1      1.05379941    -0.11290794    -8.12030163    -0.11290794    -0.00090184  0.55D-04  0.46D-03  1  1     0.20
   2      1.05512231    -0.11392054    -8.12131423    -0.00101260    -0.00000181  0.22D-06  0.82D-06  2  2     0.20
   3      1.05515828    -0.11393566    -8.12132935    -0.00001512    -0.00000000  0.12D-08  0.13D-08  3  3     0.20
   4      1.05515884    -0.11393579    -8.12132948    -0.00000013    -0.00000000  0.90D-11  0.30D-11  4  4     0.20

 Norm of t1 vector:      0.06315637      S-energy:    -0.00450498      T1 diagnostic:  0.01233179
 Norm of t2 vector:      0.22620811      P-energy:    -0.10943081
                                         Alpha-Beta:  -0.08742667
                                         Alpha-Alpha: -0.01910847
                                         Beta-Beta:   -0.00289567

 Spin contamination <S**2-Sz**2-Sz>     0.00460678
  Reference energy                     -8.007393691784
  RHF-RMP2 correlation energy          -0.113935789784
 !RHF-RMP2 energy                      -8.121329481568

 Starting UCCSD calculation

 ITER.      SQ.NORM     CORR.ENERGY   TOTAL ENERGY   ENERGY CHANGE        DEN1      VAR(S)    VAR(P)  DIIS     TIME
   1      1.06326291    -0.12027280    -8.12766649    -0.12027280    -0.00430322  0.35D-03  0.19D-02  1  1     0.21
   2      1.07148891    -0.12539609    -8.13278978    -0.00512329    -0.00013702  0.13D-04  0.59D-04  2  2     0.22
   3      1.07279457    -0.12584181    -8.13323550    -0.00044572    -0.00000778  0.74D-06  0.39D-05  3  3     0.22
   4      1.07311011    -0.12593278    -8.13332647    -0.00009096    -0.00000050  0.35D-07  0.27D-06  4  4     0.23
   5      1.07315998    -0.12594284    -8.13333653    -0.00001006    -0.00000005  0.39D-08  0.29D-07  5  5     0.24
   6      1.07316419    -0.12594261    -8.13333630     0.00000023    -0.00000001  0.32D-09  0.43D-08  6  6     0.24

 Norm of t1 vector:      0.07770586      S-energy:    -0.00523381      T1 diagnostic:  0.01712977
                                                                       D1 diagnostic:  0.02494496
 Norm of t2 vector:      0.25908684      P-energy:    -0.12070880
                                         Alpha-Beta:  -0.09862757
                                         Alpha-Alpha: -0.01928255
                                         Beta-Beta:   -0.00279868

 Spin contamination <S**2-Sz**2-Sz>     0.00387494

 Memory could be reduced to 1.25 Mwords without degradation in triples
 

 RESULTS
 =======

  Reference energy                     -8.007393691784
  UCCSD singles energy                 -0.005233805173
  UCCSD pair energy                    -0.120708802259
  UCCSD correlation energy             -0.125942607431
  Triples (T) contribution             -0.004669103546
  Total correlation energy             -0.130611710978
 
  RHF-UCCSD energy                     -8.133336299215
  RHF-UCCSD[T] energy                  -8.138000456854
  RHF-UCCSD-T energy                   -8.138001233394
 !RHF-UCCSD(T) energy                  -8.138005402762

 Program statistics:

 Available memory in ccsd:               511999732
 Min. memory needed in ccsd:                 65095
 Max. memory used in ccsd:                   75467
 Max. memory used in cckext:                 91649 ( 6 integral passes)
 Max. memory used in cckint:                212501 ( 1 integral passes)



 **********************************************************************************************************************************
 DATASETS  * FILE   NREC   LENGTH (MB)   RECORD NAMES
              1      20       20.10       500      610      700      900      950      970     1000      129      960     1100   
                                          VAR    BASINP    GEOM    SYMINP    ZMAT    AOBASIS   BASIS     P2S    ABASIS      S 
                                         1400     1410     1420     1200     1210     1080     1600     1650     1700     1380   
                                           T        V       ECP      H0       H01     AOSYM     SMH    MOLCAS    OPER     JKOP   

              2       6        7.87       700     1000      520     4202     5202     2101   
                                         GEOM     BASIS   MCVARS     RHF     MCSCF     RHF  

 PROGRAMS   *        TOTAL  UCCSD(T)       RHF     MULTI       POP       RHF       INT
 CPU TIMES  *         1.76      0.44      0.06      0.16      0.00      0.07      0.51
 REAL TIME  *         5.34 SEC
 DISK USED  *       512.68 MB      
 SF USED    *        10.19 MB      
 GA USED    *         0.00 MB       (max)       0.00 MB       (current)
 **********************************************************************************************************************************
 SETTING CCSD(1)        =        -8.13800540  AU                              
 Output type csv         
                                                                                                                                                                                                                                                                

      SCF,CCSD
   -8.00739369,   -8.13800540
                                                  

 UCCSD(T)/USERDEF energy=     -8.138005402762

        UCCSD(T)        MULTI           RHF-SCF 
     -8.13800540     -8.00739369     -8.00973747
 **********************************************************************************************************************************
 Molpro calculation terminated
 Variable memory released
