
 Primary working directories    : /global/cscratch1/sd/gwang18
 Secondary working directories  : /global/cscratch1/sd/gwang18
 Wavefunction directory         : /global/homes/g/gwang18/wfu/
 Main file repository           : /global/cscratch1/sd/gwang18/

 SHA1      : 19cd028119e0e09f93f0674bd8af7968d9b3eff6
 NAME      : 2015.1.36
 ARCHNAME  : linux/x86_64
 FC        : /opt/cray/pe/craype/2.5.14/bin/ftn
 BLASLIB   : -L/opt/intel/compilers_and_libraries_2018.1.163/linux/mkl/lib/intel64 -Wl,-_start-group -lmkl_intel_ilp64 -lmkl_intel_thread -lmkl_core -Wl,-_end-group -liomp5
 id        : lbl

 Nodes     nprocs
 nid01808     7
 Number of processes for MPI-2 version of Molpro:   nprocs(total)=    8   nprocs(compute)=    7   nprocs(helper)=    1

 Using customized tuning parameters: mindgm=7; mindgv=16; mindgc=1; mindgr=1; noblas=0; minvec=7
 default implementation of scratch files=sf  

 ***,Calculation for Ag atom, singlet and triplet
 memory,512,m
 geometry={
 1
 Sr
 Sr  0.0 0.0 0.0
 }
 
 basis={
 ECP,Sr,28,4,0;
 1; 2,1.,0.;
 2; 2,6.933460990,135.271042909; 2,4.114003832,17.944071402;
 4; 2,7.216816623,29.438081345; 2,7.173696172,58.880674863; 2,3.022798817,4.936282692; 2,2.865699030,9.723352071;
 4; 2,6.321514600,11.907239187; 2,6.391499495,17.859551440; 2,1.769726597,2.199180226; 2,1.636771665,2.893570866;
 2; 2,4.244198396,-5.509333254; 2,4.229164471,-7.304641693;
 Including file /global/u2/g/gwang18/projects/heavy-element-ecp/sr/mdfstu/basis/aug-cc-pwCVQZ.basis
 }
 
 Including file /global/u2/g/gwang18/projects/heavy-element-ecp/sr/mdfstu/basis/states.proc
 
 do i=1,6
     if (i.eq.1) then
         I5s2
     else if (i.eq.2) then
         I5s5p
     else if (i.eq.3) then
         I5s4d
     else if (i.eq.4) then
         II5s1
     else if (i.eq.5) then
         II4d
     else if (i.eq.6) then
         III4p6
     endif
     scf(i)=energy
     _CC_NORM_MAX=2.0
     {rccsd(t),maxit=100;core}
     ccsd(i)=energy
 enddo
 
 table,scf,ccsd
 type,csv
 save

 Variables initialized (889), CPU time= 0.01 sec
 Commands  initialized (702), CPU time= 0.01 sec, 572 directives.
 Default parameters read. Elapsed time= 0.17 sec

 Checking input...
 Passed
1


                                         ***  PROGRAM SYSTEM MOLPRO  ***
                                       Copyright, TTI GmbH Stuttgart, 2015
                                    Version 2015.1 linked Dec 29 2018 15:55:43


 **********************************************************************************************************************************
 LABEL *   Calculation for Ag atom, singlet and triplet                                  
  64 bit mpp version                                                                     DATE: 30-Aug-19          TIME: 15:27:50  
 **********************************************************************************************************************************

 SHA1:             19cd028119e0e09f93f0674bd8af7968d9b3eff6
 **********************************************************************************************************************************

Geometry recognized as XYZ


 Variable memory set to  512000000 words,  buffer space   230000 words

 SETTING BASIS          =    USERDEF

 DO I                   =         1.00000000   

 Running procedure=I5S2


 Recomputing integrals since basis changed


 Using spherical harmonics



 PROGRAM * SEWARD (Integral evaluation for generally contracted gaussian basis sets)     Author: Roland Lindh, 1990

 Geometry written to block  1 of record 700

 Orientation using atomic masses  
 Molecule type: Atom
 Symmetry elements: X,Y,Z
 Rotational constants:       0.0000000      0.0000000      0.0000000 GHz  (calculated with average atomic masses)

 Point group  D2h 



 ATOMIC COORDINATES

 NR  ATOM    CHARGE       X              Y              Z

   1  SR     10.00    0.000000000    0.000000000    0.000000000

 NUCLEAR CHARGE:                   10
 NUMBER OF PRIMITIVE AOS:         335
 NUMBER OF SYMMETRY AOS:          282
 NUMBER OF CONTRACTIONS:          282   (  85Ag  +  38B3u +  38B2u +  26B1g +  38B1u +  26B2g +  26B3g +   5Au  )
 NUMBER OF CORE ORBITALS:           4   (   1Ag  +   1B3u +   1B2u +   0B1g +   1B1u +   0B2g +   0B3g +   0Au  )
 NUMBER OF VALENCE ORBITALS:        1   (   1Ag  +   0B3u +   0B2u +   0B1g +   0B1u +   0B2g +   0B3g +   0Au  )


 NUCLEAR REPULSION ENERGY    0.00000000

 EXTRA SYMMETRY OF AOS IN SYMMETRY 1:   1 1 1 1 1 1 1 1 1 1   1 1 1 1 1 1 1 1 1 1   1 1 1 1 1 1 1 1 1 1   1 1 1 1 1 1 2 3 2 3
                                        2 3 2 3 2 3 2 3 2 3   2 3 2 3 2 3 2 3 2 3   2 3 2 3 2 3 2 3 2 3   2 3 2 3 2 3 4 5 6 4
                                        5 6 4 5 6
 EXTRA SYMMETRY OF AOS IN SYMMETRY 2:   1 1 1 1 1 1 1 1 1 1   1 1 1 1 1 1 1 1 1 1   1 1 1 1 1 1 1 1 2 3   2 3 2 3 2 3 2 3
 EXTRA SYMMETRY OF AOS IN SYMMETRY 3:   1 1 1 1 1 1 1 1 1 1   1 1 1 1 1 1 1 1 1 1   1 1 1 1 1 1 1 1 2 3   2 3 2 3 2 3 2 3
 EXTRA SYMMETRY OF AOS IN SYMMETRY 4:   1 1 1 1 1 1 1 1 1 1   1 1 1 1 1 1 1 1 1 1   2 3 2 3 2 3
 EXTRA SYMMETRY OF AOS IN SYMMETRY 5:   1 1 1 1 1 1 1 1 1 1   1 1 1 1 1 1 1 1 1 1   1 1 1 1 1 1 1 1 2 3   2 3 2 3 2 3 2 3
 EXTRA SYMMETRY OF AOS IN SYMMETRY 6:   1 1 1 1 1 1 1 1 1 1   1 1 1 1 1 1 1 1 1 1   2 3 2 3 2 3
 EXTRA SYMMETRY OF AOS IN SYMMETRY 7:   1 1 1 1 1 1 1 1 1 1   1 1 1 1 1 1 1 1 1 1   2 3 2 3 2 3

 Eigenvalues of metric

         1 0.142E-06 0.168E-05 0.274E-05 0.274E-05 0.164E-04 0.412E-04 0.849E-04 0.144E-03
         2 0.115E-05 0.814E-05 0.197E-03 0.444E-03 0.100E-02 0.217E-02 0.396E-02 0.793E-02
         3 0.115E-05 0.814E-05 0.197E-03 0.444E-03 0.100E-02 0.217E-02 0.396E-02 0.793E-02
         4 0.274E-05 0.144E-03 0.888E-03 0.359E-02 0.101E-01 0.221E-01 0.383E-01 0.710E-01
         5 0.115E-05 0.814E-05 0.197E-03 0.444E-03 0.100E-02 0.217E-02 0.396E-02 0.793E-02
         6 0.274E-05 0.144E-03 0.888E-03 0.359E-02 0.101E-01 0.221E-01 0.383E-01 0.710E-01
         7 0.274E-05 0.144E-03 0.888E-03 0.359E-02 0.101E-01 0.221E-01 0.383E-01 0.710E-01
         8 0.329E-01 0.285E+00 0.718E+00 0.143E+01 0.253E+01


 Contracted 2-electron integrals neglected if value below      1.0D-13
 AO integral compression algorithm  1   Integral accuracy      1.0D-13

     684.196 MB (compressed) written to integral file ( 40.8%)

     Node minimum: 69.992 MB, node maximum: 119.538 MB


 NUMBER OF SORTED TWO-ELECTRON INTEGRALS:   14974587.     BUFFER LENGTH:  32768
 NUMBER OF SEGMENTS:   1  SEGMENT LENGTH:   14974587      RECORD LENGTH: 524288

 Memory used in sort:      15.53 MW

 SORT1 READ   209802268. AND WROTE     9043276. INTEGRALS IN     26 RECORDS. CPU TIME:     3.52 SEC, REAL TIME:     3.78 SEC
 SORT2 READ    62838234. AND WROTE   104744227. INTEGRALS IN   3192 RECORDS. CPU TIME:     0.30 SEC, REAL TIME:     0.54 SEC

 Node minimum:    14929260.  Node maximum:    15044872. integrals

 OPERATOR DM      FOR CENTER  0  COORDINATES:    0.000000    0.000000    0.000000


 **********************************************************************************************************************************
 DATASETS  * FILE   NREC   LENGTH (MB)   RECORD NAMES
              1      19       20.54       500      610      700      900      950      970     1000      129      960     1100   
                                          VAR    BASINP    GEOM    SYMINP    ZMAT    AOBASIS   BASIS     P2S    ABASIS      S 
                                         1400     1410     1420     1200     1210     1080     1600     1650     1700   
                                           T        V       ECP      H0       H01     AOSYM     SMH    MOLCAS    OPER   

 PROGRAMS   *        TOTAL       INT
 CPU TIMES  *        66.11     65.90
 REAL TIME  *        68.48 SEC
 DISK USED  *         1.43 GB      
 GA USED    *         0.00 MB       (max)       0.00 MB       (current)
 **********************************************************************************************************************************


 PROGRAM * RHF-SCF (CLOSED SHELL)       Authors: W. Meyer, H.-J. Werner


 NUMBER OF ELECTRONS:       5+    5-    SPACE SYMMETRY=1    SPIN SYMMETRY: Singlet 
 CONVERGENCE THRESHOLDS:    1.00E-05 (Density)    1.00E-07 (Energy)
 MAX. NUMBER OF ITERATIONS:       60
 INTERPOLATION TYPE:            DIIS
 INTERPOLATION STEPS:              2 (START)      1 (STEP)
 LEVEL SHIFTS:                  0.00 (CLOSED)  0.00 (OPEN) 

 Number of closed-shell orbitals:    5 (   2   1   1   0   1   0   0   0 )


 
 Extra symmetries of mos in symmetry 1:   1   1
 Orbital guess generated from atomic densities. Full valence occupancy:    2   1   1   0   1   0   0   0


 Molecular orbital dump at record        2100.2

 ITERATION    DDIFF          GRAD             ENERGY        2-EL.EN.            DIPOLE MOMENTS         DIIS   ORB.
    1      0.000D+00      0.000D+00       -30.34124052     38.956576    0.00000    0.00000    0.00000    0    start
    2      0.000D+00      0.298D-03       -30.34124663     38.953677    0.00000    0.00000    0.00000    1    diag
    3      0.249D-02      0.169D-04       -30.34124668     38.954079    0.00000    0.00000    0.00000    2    diag
    4      0.150D-03      0.153D-05       -30.34124668     38.954157    0.00000    0.00000    0.00000    3    diag
    5      0.123D-04      0.336D-06       -30.34124668     38.954218    0.00000    0.00000    0.00000    4    diag
    6      0.291D-05      0.558D-07       -30.34124668     38.954226    0.00000    0.00000    0.00000    0    orth

 Final occupancy:   2   1   1   0   1   0   0   0

 !RHF STATE 1.1 Energy                -30.341246681012
 Nuclear energy                         0.00000000
 One-electron energy                  -49.81835973
 Two-electron energy                   19.47711305
 Virial quotient                       -3.19863238
 !RHF STATE 1.1 Dipole moment           0.00000000     0.00000000     0.00000000
 Dipole moment /Debye                   0.00000000     0.00000000     0.00000000

 ELECTRON ORBITALS
 =================


   Orb  Occ    Energy  Couls-En    Coefficients

                                   1 1s      1 1s      1 1s      1 1s      1 1s      1 1s      1 1s      1 1s      1 1s      1 1s   
                                   1 1s      1 1s      1 1s      1 1s      1 1s      1 1s      1 1s      1 1s      1 1s      1 1s   
                                   1 1s      1 1s      1 1s      1 1s      1 1s      1 1s      1 1s      1 1s      1 1s      1 1s   
                                   1 1s      1 1s      1 1s      1 1s      1 1s      1 1s      1 3d0     1 3d2+    1 3d0     1 3d2+ 
                                   1 3d0     1 3d2+    1 3d0     1 3d2+    1 3d0     1 3d2+    1 3d0     1 3d2+    1 3d0     1 3d2+ 
                                   1 3d0     1 3d2+    1 3d0     1 3d2+    1 3d0     1 3d2+    1 3d0     1 3d2+    1 3d0     1 3d2+ 
                                   1 3d0     1 3d2+    1 3d0     1 3d2+    1 3d0     1 3d2+    1 3d0     1 3d2+    1 3d0     1 3d2+ 
                                   1 3d0     1 3d2+    1 3d0     1 3d2+    1 3d0     1 3d2+    1 5g0     1 5g4+    1 5g2+    1 5g0  
                                   1 5g4+    1 5g2+    1 5g0     1 5g4+    1 5g2+ 

   1.1   2    -1.9719   -8.3182  0.000000 -0.000000  0.000000 -0.000000  0.000000 -0.000000  0.000000 -0.000000  0.000001 -0.000002
                                 0.000006 -0.000014  0.000035 -0.000077  0.000181 -0.000378  0.000842 -0.001688  0.003540 -0.007747
                                 0.019291 -0.051250  0.093502  0.232496  0.203700  0.724565  0.779035  0.232877  0.021537 -0.011062
                                 0.005347 -0.002200 -0.823651 -0.312213 -0.285733  0.000527  0.000000 -0.000000 -0.000000  0.000000
                                 0.000000 -0.000000 -0.000000  0.000000  0.000000 -0.000000 -0.000000  0.000000  0.000000 -0.000000
                                -0.000000 -0.000000  0.000000  0.000000 -0.000000 -0.000000  0.000000  0.000000  0.000000  0.000000
                                -0.000000  0.000000  0.000000 -0.000000 -0.000000  0.000000  0.000000 -0.000000 -0.000000 -0.000000
                                -0.000000 -0.000000  0.000000 -0.000000 -0.000000  0.000000  0.000000  0.000000 -0.000000 -0.000000
                                -0.000000  0.000000 -0.000000 -0.000000  0.000000

   2.1   2    -0.1813   -2.5528 -0.000000  0.000000 -0.000000  0.000000 -0.000000  0.000000 -0.000000  0.000000 -0.000000  0.000001
                                -0.000002  0.000004 -0.000010  0.000022 -0.000052  0.000108 -0.000241  0.000484 -0.001017  0.002231
                                -0.005595  0.015106 -0.029083 -0.062430 -0.051078 -0.240288 -0.336801 -0.252326  0.151671  0.535750
                                 0.450768  0.081158  0.236182  0.092950  0.101496 -0.000446 -0.000000  0.000000  0.000000 -0.000000
                                -0.000000 -0.000000  0.000000  0.000000 -0.000000 -0.000000  0.000000  0.000000 -0.000000 -0.000000
                                 0.000000  0.000000 -0.000000 -0.000000  0.000000  0.000000 -0.000000 -0.000000 -0.000000 -0.000000
                                 0.000000  0.000000 -0.000000 -0.000000  0.000000  0.000000  0.000000 -0.000000  0.000000  0.000000
                                 0.000000  0.000000  0.000000 -0.000000 -0.000000  0.000000 -0.000000 -0.000000  0.000000 -0.000000
                                -0.000000  0.000000 -0.000000 -0.000000  0.000000

   3.1   0     0.0126   -0.6886 -0.000000  0.000000 -0.000000  0.000000 -0.000000  0.000000 -0.000000  0.000000 -0.000000  0.000001
                                -0.000002  0.000006 -0.000013  0.000030 -0.000067  0.000146 -0.000308  0.000629 -0.001220  0.002500
                                -0.005149  0.010662 -0.028867  0.154172  0.871989  1.475396  1.778049 -0.599929  1.015809 -2.197770
                                 3.243216 -4.788425 -0.859689 -0.541718 -2.406730  3.494680  0.000000 -0.000000  0.000000  0.000000
                                -0.000000 -0.000000  0.000000  0.000000 -0.000000 -0.000000  0.000000  0.000000 -0.000000 -0.000000
                                 0.000000  0.000000 -0.000000 -0.000000  0.000000  0.000000 -0.000000 -0.000000  0.000000 -0.000000
                                -0.000000  0.000000  0.000000 -0.000000 -0.000000  0.000000  0.000000 -0.000000 -0.000000  0.000000
                                -0.000000  0.000000  0.000000 -0.000000 -0.000001  0.000001 -0.000000  0.000000 -0.000000  0.000000
                                 0.000000  0.000000  0.000000 -0.000000  0.000000

   4.1   0     0.0207   -0.5842 -0.000000  0.000000 -0.000000  0.000000 -0.000000  0.000000 -0.000000  0.000000 -0.000000  0.000000
                                -0.000000  0.000000 -0.000000  0.000000 -0.000000  0.000000 -0.000000  0.000000 -0.000000  0.000000
                                -0.000000  0.000000 -0.000000  0.000000  0.000001 -0.000000 -0.000000 -0.000000  0.000000  0.000000
                                -0.000001  0.000001 -0.000001  0.000000  0.000000 -0.000000 -0.000000 -0.000000  0.000001  0.000001
                                -0.000005 -0.000003  0.000021  0.000013 -0.000074 -0.000046  0.000235  0.000147 -0.000642 -0.000402
                                 0.001649  0.001031 -0.004148 -0.002595  0.011396  0.007128 -0.057009 -0.035658 -0.329798 -0.206284
                                 0.051447  0.032179 -0.065066 -0.040698  0.181877  0.113762 -0.389237 -0.243462  0.202461  0.126636
                                 0.229243  0.143388 -0.065074 -0.040703  1.052118  0.658084  0.000000  0.000000  0.000000 -0.000000
                                -0.000000 -0.000000 -0.000000  0.000000 -0.000000

                                   1 2px     1 2px     1 2px     1 2px     1 2px     1 2px     1 2px     1 2px     1 2px     1 2px  
                                   1 2px     1 2px     1 2px     1 2px     1 2px     1 2px     1 2px     1 2px     1 2px     1 2px  
                                   1 2px     1 2px     1 2px     1 2px     1 2px     1 2px     1 2px     1 2px     1 4f1+    1 4f3+ 
                                   1 4f1+    1 4f3+    1 4f1+    1 4f3+    1 4f1+    1 4f3+    1 4f1+    1 4f3+ 

   1.2   2    -1.0930   -6.4901 -0.000000  0.000000 -0.000000  0.000000 -0.000000  0.000001 -0.000003  0.000011 -0.000028  0.000098
                                -0.000222  0.000710 -0.001715  0.004238  0.016431 -0.105340 -0.116770  0.385233  0.372899  0.148306
                                 0.017969  0.004476 -0.000385  0.000355  0.029122  0.210554  0.044802 -0.000093 -0.000000  0.000000
                                 0.000000 -0.000000 -0.000000 -0.000000 -0.000000  0.000000  0.000000  0.000000

   2.2   0     0.0086   -0.9456 -0.000000  0.000000 -0.000000  0.000000 -0.000000  0.000000 -0.000001  0.000004 -0.000012  0.000033
                                -0.000091  0.000214 -0.000516  0.001290 -0.006325  0.033724  0.144905  0.432171  0.244173 -0.254293
                                 0.326634 -0.336338  0.793329 -0.853649 -0.123272 -0.113786 -0.593141  1.332731  0.000000 -0.000000
                                 0.000000 -0.000000  0.000000  0.000000 -0.000000  0.000000 -0.000000 -0.000000

   3.2   0     0.0271   -1.0380  0.000000 -0.000000  0.000000 -0.000000  0.000000 -0.000001  0.000004 -0.000014  0.000042 -0.000123
                                 0.000320 -0.000819  0.001978 -0.004968  0.011218 -0.051927 -0.346305 -1.293606 -0.829462  0.583862
                                -0.747001  1.311848 -1.631534  3.148262  0.318554  0.221773  1.559414 -2.129635 -0.000000 -0.000000
                                -0.000000 -0.000000  0.000000  0.000000  0.000000  0.000000 -0.000000 -0.000000

                                   1 2py     1 2py     1 2py     1 2py     1 2py     1 2py     1 2py     1 2py     1 2py     1 2py  
                                   1 2py     1 2py     1 2py     1 2py     1 2py     1 2py     1 2py     1 2py     1 2py     1 2py  
                                   1 2py     1 2py     1 2py     1 2py     1 2py     1 2py     1 2py     1 2py     1 4f1-    1 4f3- 
                                   1 4f1-    1 4f3-    1 4f1-    1 4f3-    1 4f1-    1 4f3-    1 4f1-    1 4f3- 

   1.3   2    -1.0930   -6.4901 -0.000000  0.000000 -0.000000  0.000000 -0.000000  0.000001 -0.000003  0.000011 -0.000028  0.000098
                                -0.000222  0.000710 -0.001715  0.004238  0.016431 -0.105340 -0.116770  0.385233  0.372899  0.148306
                                 0.017969  0.004476 -0.000385  0.000355  0.029122  0.210554  0.044802 -0.000093 -0.000000 -0.000000
                                -0.000000  0.000000 -0.000000 -0.000000 -0.000000 -0.000000  0.000000  0.000000

   2.3   0     0.0086   -0.9456 -0.000000  0.000000 -0.000000  0.000000 -0.000000  0.000000 -0.000001  0.000004 -0.000012  0.000033
                                -0.000091  0.000214 -0.000516  0.001290 -0.006325  0.033724  0.144905  0.432171  0.244173 -0.254293
                                 0.326634 -0.336338  0.793329 -0.853649 -0.123272 -0.113786 -0.593141  1.332731  0.000000 -0.000000
                                 0.000000 -0.000000  0.000000  0.000000 -0.000000  0.000000 -0.000000 -0.000000

   3.3   0     0.0271   -1.0380  0.000000 -0.000000  0.000000 -0.000000  0.000000 -0.000001  0.000004 -0.000014  0.000042 -0.000123
                                 0.000320 -0.000819  0.001978 -0.004968  0.011218 -0.051927 -0.346305 -1.293606 -0.829462  0.583862
                                -0.747000  1.311848 -1.631534  3.148262  0.318554  0.221773  1.559414 -2.129635 -0.000000 -0.000000
                                -0.000000 -0.000000  0.000000  0.000000  0.000000  0.000000 -0.000000  0.000000

                                   1 3d2-    1 3d2-    1 3d2-    1 3d2-    1 3d2-    1 3d2-    1 3d2-    1 3d2-    1 3d2-    1 3d2- 
                                   1 3d2-    1 3d2-    1 3d2-    1 3d2-    1 3d2-    1 3d2-    1 3d2-    1 3d2-    1 3d2-    1 3d2- 
                                   1 5g2-    1 5g4-    1 5g2-    1 5g4-    1 5g2-    1 5g4- 

   1.4   0     0.0207   -0.5842 -0.000000  0.000001 -0.000006  0.000024 -0.000087  0.000277 -0.000757  0.001945 -0.004893  0.013442
                                -0.067242 -0.388999  0.060682 -0.076746  0.214525 -0.459107  0.238804  0.270393 -0.076756  1.240978
                                 0.000000  0.000000 -0.000000 -0.000000 -0.000000 -0.000000

   2.4   0     0.0599   -1.0857  0.000000 -0.000003  0.000014 -0.000057  0.000214 -0.000647  0.001865 -0.004475  0.010689 -0.031643
                                 0.167131  0.961872 -0.057014  0.311958 -0.398251  1.600630 -0.574776 -0.647386  0.246400 -0.843708
                                 0.000000  0.000000 -0.000000 -0.000000 -0.000000 -0.000000

                                   1 2pz     1 2pz     1 2pz     1 2pz     1 2pz     1 2pz     1 2pz     1 2pz     1 2pz     1 2pz  
                                   1 2pz     1 2pz     1 2pz     1 2pz     1 2pz     1 2pz     1 2pz     1 2pz     1 2pz     1 2pz  
                                   1 2pz     1 2pz     1 2pz     1 2pz     1 2pz     1 2pz     1 2pz     1 2pz     1 4f0     1 4f2+ 
                                   1 4f0     1 4f2+    1 4f0     1 4f2+    1 4f0     1 4f2+    1 4f0     1 4f2+ 

   1.5   2    -1.0930   -6.4901 -0.000000  0.000000 -0.000000  0.000000 -0.000000  0.000001 -0.000003  0.000011 -0.000028  0.000098
                                -0.000222  0.000710 -0.001715  0.004238  0.016431 -0.105340 -0.116770  0.385233  0.372899  0.148306
                                 0.017969  0.004476 -0.000385  0.000355  0.029122  0.210554  0.044802 -0.000093 -0.000000 -0.000000
                                -0.000000  0.000000 -0.000000 -0.000000 -0.000000 -0.000000  0.000000  0.000000

   2.5   0     0.0086   -0.9456 -0.000000  0.000000 -0.000000  0.000000 -0.000000  0.000000 -0.000001  0.000004 -0.000012  0.000033
                                -0.000091  0.000214 -0.000516  0.001290 -0.006325  0.033724  0.144905  0.432171  0.244173 -0.254293
                                 0.326634 -0.336338  0.793329 -0.853649 -0.123272 -0.113786 -0.593141  1.332731  0.000000 -0.000000
                                -0.000000 -0.000000  0.000000  0.000000 -0.000000  0.000000 -0.000000 -0.000000

   3.5   0     0.0271   -1.0380  0.000000 -0.000000  0.000000 -0.000000  0.000000 -0.000001  0.000004 -0.000014  0.000042 -0.000123
                                 0.000320 -0.000819  0.001978 -0.004968  0.011218 -0.051927 -0.346305 -1.293606 -0.829462  0.583862
                                -0.747001  1.311848 -1.631534  3.148262  0.318554  0.221773  1.559414 -2.129635  0.000000  0.000000
                                 0.000000  0.000000  0.000000 -0.000000 -0.000000 -0.000000 -0.000000 -0.000000

                                   1 3d1+    1 3d1+    1 3d1+    1 3d1+    1 3d1+    1 3d1+    1 3d1+    1 3d1+    1 3d1+    1 3d1+ 
                                   1 3d1+    1 3d1+    1 3d1+    1 3d1+    1 3d1+    1 3d1+    1 3d1+    1 3d1+    1 3d1+    1 3d1+ 
                                   1 5g1+    1 5g3+    1 5g1+    1 5g3+    1 5g1+    1 5g3+ 

   1.6   0     0.0207   -0.5842 -0.000000  0.000001 -0.000006  0.000024 -0.000087  0.000277 -0.000757  0.001945 -0.004893  0.013442
                                -0.067242 -0.388999  0.060682 -0.076746  0.214525 -0.459107  0.238804  0.270393 -0.076756  1.240978
                                 0.000000  0.000000 -0.000000 -0.000000 -0.000000 -0.000000

   2.6   0     0.0599   -1.0857  0.000000 -0.000003  0.000014 -0.000057  0.000214 -0.000647  0.001865 -0.004475  0.010689 -0.031643
                                 0.167131  0.961872 -0.057014  0.311958 -0.398251  1.600630 -0.574776 -0.647386  0.246400 -0.843708
                                 0.000000  0.000000 -0.000000 -0.000000 -0.000000 -0.000000

                                   1 3d1-    1 3d1-    1 3d1-    1 3d1-    1 3d1-    1 3d1-    1 3d1-    1 3d1-    1 3d1-    1 3d1- 
                                   1 3d1-    1 3d1-    1 3d1-    1 3d1-    1 3d1-    1 3d1-    1 3d1-    1 3d1-    1 3d1-    1 3d1- 
                                   1 5g1-    1 5g3-    1 5g1-    1 5g3-    1 5g1-    1 5g3- 

   1.7   0     0.0207   -0.5842 -0.000000  0.000001 -0.000006  0.000024 -0.000087  0.000277 -0.000757  0.001945 -0.004893  0.013442
                                -0.067242 -0.388999  0.060682 -0.076746  0.214525 -0.459107  0.238804  0.270393 -0.076756  1.240978
                                 0.000000  0.000000 -0.000000 -0.000000 -0.000000 -0.000000

   2.7   0     0.0599   -1.0857  0.000000 -0.000003  0.000014 -0.000057  0.000214 -0.000647  0.001865 -0.004475  0.010689 -0.031643
                                 0.167131  0.961872 -0.057014  0.311958 -0.398251  1.600630 -0.574776 -0.647386  0.246400 -0.843708
                                 0.000000  0.000000 -0.000000 -0.000000 -0.000000 -0.000000

                                   1 4f2-    1 4f2-    1 4f2-    1 4f2-    1 4f2- 

   1.8   0     0.1622   -1.0469 -0.072232 -0.247759  0.009229  0.132083  1.131642

   2.8   0     0.4427   -1.3148  0.223582  1.391164 -0.003524 -0.297021 -0.709553

 HOMO      2.1    -0.181273 =      -4.9327eV
 LUMO      2.2     0.008630 =       0.2348eV
 LUMO-HOMO         0.189903 =       5.1675eV


 **********************************************************************************************************************************
 DATASETS  * FILE   NREC   LENGTH (MB)   RECORD NAMES
              1      19       20.58       500      610      700      900      950      970     1000      129      960     1100   
                                          VAR    BASINP    GEOM    SYMINP    ZMAT    AOBASIS   BASIS     P2S    ABASIS      S 
                                         1400     1410     1420     1200     1210     1080     1600     1650     1700   
                                           T        V       ECP      H0       H01     AOSYM     SMH    MOLCAS    OPER   

              2       5        5.65       200      700     1000      520     2100   
                                        OPTIONS   GEOM     BASIS   MCVARS     RHF  

 PROGRAMS   *        TOTAL       RHF       INT
 CPU TIMES  *        66.80      0.68     65.90
 REAL TIME  *        69.48 SEC
 DISK USED  *         1.62 GB      
 SF USED    *         0.06 MB      
 GA USED    *         0.00 MB       (max)       0.00 MB       (current)
 **********************************************************************************************************************************
 SETTING SCF(1)         =       -30.34124668  AU                              
 SETTING _CC_NORM_MAX   =         2.00000000                                  


 PROGRAM * CCSD (Restricted open-shell coupled cluster)     Authors: C. Hampel, H.-J. Werner, 1991, M. Deegan, P.J. Knowles, 1992


 Convergence thresholds:  THRVAR = 1.00D-08  THRDEN = 1.00D-06

 CCSD(T)     terms to be evaluated (factor= 1.000)


 Number of closed-shell orbitals:   5 (   2   1   1   0   1   0   0   0 )
 Number of external orbitals:     277 (  83  37  37  26  37  26  26   5 )

 Memory could be reduced to 34.02 Mwords without degradation in triples

 Number of N-1 electron functions:              10
 Number of N-2 electron functions:              45
 Number of singly external CSFs:               554
 Number of doubly external CSFs:            367599
 Total number of CSFs:                      368153

 Molecular orbitals read from record     2100.2  Type=RHF/CANONICAL (state 1.1)

 Integral transformation finished. Total CPU:   0.70 sec, npass=  1  Memory used:   4.31 MW

 Starting RMP2 calculation

 Wavefunction is spin-projected

 ITER.      SQ.NORM     CORR.ENERGY   TOTAL ENERGY   ENERGY CHANGE        DEN1      VAR(S)    VAR(P)  DIIS     TIME
   1      1.09707259    -0.26744988   -30.60869656    -0.26744988    -0.00170750  0.11D-12  0.16D-02  1  1     0.74
   2      1.10168564    -0.26933284   -30.61057952    -0.00188296    -0.00004493  0.12D-13  0.67D-04  2  2     0.78
   3      1.10281841    -0.26959076   -30.61083744    -0.00025793    -0.00000025  0.41D-15  0.33D-06  3  3     0.80
   4      1.10286202    -0.26959637   -30.61084306    -0.00000561    -0.00000000  0.30D-16  0.58D-08  4  4     0.83
   5      1.10286314    -0.26959636   -30.61084304     0.00000002    -0.00000000  0.17D-17  0.40D-10  5  5     0.85

 Norm of t1 vector:      0.00000144      S-energy:    -0.00000000      T1 diagnostic:  0.00000032
 Norm of t2 vector:      0.32072285      P-energy:    -0.26959636
                                         Alpha-Beta:  -0.20437878
                                         Alpha-Alpha: -0.03260879
                                         Beta-Beta:   -0.03260879

 Spin contamination <S**2-Sz**2-Sz>     0.00000000
  Reference energy                    -30.341246681012
  RHF-RMP2 correlation energy          -0.269596358248
 !RHF-RMP2 energy                     -30.610843039260
 (NB above energy spin projected)

 Starting RCCSD calculation

 ITER.      SQ.NORM     CORR.ENERGY   TOTAL ENERGY   ENERGY CHANGE        DEN1      VAR(S)    VAR(P)  DIIS     TIME
   1      1.10224236    -0.27382572   -30.61507241    -0.27382572    -0.00661396  0.19D-02  0.30D-02  1  1     1.18
   2      1.11885118    -0.28096404   -30.62221072    -0.00713832    -0.00065048  0.35D-03  0.52D-03  2  2     1.48
   3      1.12862651    -0.28254102   -30.62378770    -0.00157698    -0.00011791  0.10D-03  0.89D-04  3  3     1.78
   4      1.13519956    -0.28335566   -30.62460235    -0.00081465    -0.00000965  0.75D-05  0.74D-05  4  4     2.09
   5      1.13701130    -0.28351606   -30.62476274    -0.00016039    -0.00000098  0.53D-06  0.94D-06  5  5     2.39
   6      1.13730147    -0.28352935   -30.62477603    -0.00001329    -0.00000017  0.46D-07  0.19D-06  6  6     2.69
   7      1.13741467    -0.28353570   -30.62478238    -0.00000635    -0.00000002  0.11D-08  0.23D-07  6  1     2.99
   8      1.13742038    -0.28353489   -30.62478157     0.00000081    -0.00000000  0.14D-08  0.29D-08  6  2     3.29

 Norm of t1 vector:      0.10458784      S-energy:    -0.00000004      T1 diagnostic:  0.02338655
                                                                       D1 diagnostic:  0.07388325
 Norm of t2 vector:      0.35564275      P-energy:    -0.28353485
                                         Alpha-Beta:  -0.22217023
                                         Alpha-Alpha: -0.03068231
                                         Beta-Beta:   -0.03068231

 Spin contamination <S**2-Sz**2-Sz>     0.00000000

 Memory could be reduced to 34.15 Mwords without degradation in triples
 

  Correlated core orbitals:             1.1       1.2       1.3       1.5
  Orbital energies:                    -1.9719   -1.0930   -1.0930   -1.0930
 
  RCCSD core-core energy               -0.226941013226
  RCCSD core-valence energy            -0.034510262351
  RCCSD valence correlation energy     -0.022083617721
 

 RESULTS
 =======

  Reference energy                    -30.341246681012
  RCCSD singles energy                 -0.000000040567
  RCCSD pair energy                    -0.283534852731
  RCCSD correlation energy             -0.283534893298
  Triples (T) contribution             -0.010956215759
  Total correlation energy             -0.294491109057
 
  RHF-RCCSD energy                    -30.624781574310
  RHF-RCCSD[T] energy                 -30.636065412778
  RHF-RCCSD-T energy                  -30.635710681810
 !RHF-RCCSD(T) energy                 -30.635737790069

 Program statistics:

 Available memory in ccsd:               511999650
 Min. memory needed in ccsd:               1340398
 Max. memory used in ccsd:                 1749431
 Max. memory used in cckext:               1504350 ( 8 integral passes)
 Max. memory used in cckint:               4306997 ( 1 integral passes)



 **********************************************************************************************************************************
 DATASETS  * FILE   NREC   LENGTH (MB)   RECORD NAMES
              1      19       20.58       500      610      700      900      950      970     1000      129      960     1100   
                                          VAR    BASINP    GEOM    SYMINP    ZMAT    AOBASIS   BASIS     P2S    ABASIS      S 
                                         1400     1410     1420     1200     1210     1080     1600     1650     1700   
                                           T        V       ECP      H0       H01     AOSYM     SMH    MOLCAS    OPER   

              2       5        5.65       200      700     1000      520     2100   
                                        OPTIONS   GEOM     BASIS   MCVARS     RHF  

 PROGRAMS   *        TOTAL  RCCSD(T)       RHF       INT
 CPU TIMES  *        73.67      6.88      0.68     65.90
 REAL TIME  *        79.88 SEC
 DISK USED  *         1.93 GB      
 SF USED    *       379.23 MB      
 GA USED    *         0.00 MB       (max)       0.00 MB       (current)
 **********************************************************************************************************************************
 SETTING CCSD(1)        =       -30.63573779  AU                              

 DO I                   =         2.00000000   

 Running procedure=I5S5P


 PROGRAM * RHF-SCF (OPEN SHELL)       Authors: W. Meyer, H.-J. Werner


 NUMBER OF ELECTRONS:       6+    4-    SPACE SYMMETRY=2    SPIN SYMMETRY: Triplet 
 CONVERGENCE THRESHOLDS:    1.00E-05 (Density)    1.00E-07 (Energy)
 MAX. NUMBER OF ITERATIONS:       60
 INTERPOLATION TYPE:            DIIS
 INTERPOLATION STEPS:              2 (START)      1 (STEP)
 LEVEL SHIFTS:                 -0.60 (CLOSED) -0.30 (OPEN) 

 Number of closed-shell orbitals:    4 (   1   1   1   0   1   0   0   0 )
 Number of open-shell orbitals:      2 (   1   1   0   0   0   0   0   0 )

 Singly occupied orbitals:      2.1       2.2
 
 Extra symmetries of mos in symmetry 1:   1   1
 Orbital guess generated from atomic densities. Full valence occupancy:    2   1   1   0   1   0   0   0


 Molecular orbital dump at record        4202.2

 ITERATION    DDIFF          GRAD             ENERGY        2-EL.EN.            DIPOLE MOMENTS         DIIS   ORB.
    1      0.000D+00      0.000D+00       -30.24541884     36.314721    0.00000    0.00000    0.00000    0    start
    2      0.000D+00      0.182D-02       -30.25913520     36.749132    0.00000    0.00000    0.00000    1    diag,B
    3      0.136D-01      0.138D-02       -30.27329640     37.179233    0.00000    0.00000    0.00000    2    diag,B
    4      0.113D-01      0.121D-02       -30.29151389     37.744599    0.00000    0.00000    0.00000    3    diag,B
    5      0.110D-01      0.894D-03       -30.30432366     38.191761    0.00000    0.00000    0.00000    4    diag,B
    6      0.633D-02      0.321D-03       -30.30521590     38.247132    0.00000    0.00000    0.00000    5    diag,B
    7      0.127D-02      0.156D-03       -30.30540104     38.260122    0.00000    0.00000    0.00000    6    fixocc
    8      0.829D-03      0.929D-04       -30.30547020     38.271771    0.00000    0.00000    0.00000    7    diag,B
    9      0.633D-03      0.424D-04       -30.30548754     38.284466    0.00000    0.00000    0.00000    8    diag,B
   10      0.224D-03      0.158D-04       -30.30548931     38.284543    0.00000    0.00000    0.00000    9    orth
   11      0.100D-03      0.747D-05       -30.30548969     38.285094    0.00000    0.00000    0.00000    9    diag,B
   12      0.614D-04      0.377D-05       -30.30548981     38.283723    0.00000    0.00000    0.00000    9    diag,B
   13      0.401D-04      0.145D-05       -30.30548983     38.283529    0.00000    0.00000    0.00000    9    diag,B
   14      0.899D-05      0.421D-06       -30.30548983     38.283489    0.00000    0.00000    0.00000    0    orth

 Final alpha occupancy:   2   2   1   0   1   0   0   0
 Final beta  occupancy:   1   1   1   0   1   0   0   0

 !RHF STATE 1.2 Energy                -30.305489825873
 Nuclear energy                         0.00000000
 One-electron energy                  -49.44723436
 Two-electron energy                   19.14174453
 Virial quotient                       -3.18365580
 !RHF STATE 1.2 Dipole moment           0.00000000     0.00000000     0.00000000
 Dipole moment /Debye                   0.00000000     0.00000000     0.00000000

 ELECTRON ORBITALS
 =================


   Orb  Occ    Energy  Couls-En    Coefficients

                                   1 1s      1 1s      1 1s      1 1s      1 1s      1 1s      1 1s      1 1s      1 1s      1 1s   
                                   1 1s      1 1s      1 1s      1 1s      1 1s      1 1s      1 1s      1 1s      1 1s      1 1s   
                                   1 1s      1 1s      1 1s      1 1s      1 1s      1 1s      1 1s      1 1s      1 1s      1 1s   
                                   1 1s      1 1s      1 1s      1 1s      1 1s      1 1s      1 3d0     1 3d2+    1 3d0     1 3d2+ 
                                   1 3d0     1 3d2+    1 3d0     1 3d2+    1 3d0     1 3d2+    1 3d0     1 3d2+    1 3d0     1 3d2+ 
                                   1 3d0     1 3d2+    1 3d0     1 3d2+    1 3d0     1 3d2+    1 3d0     1 3d2+    1 3d0     1 3d2+ 
                                   1 3d0     1 3d2+    1 3d0     1 3d2+    1 3d0     1 3d2+    1 3d0     1 3d2+    1 3d0     1 3d2+ 
                                   1 3d0     1 3d2+    1 3d0     1 3d2+    1 3d0     1 3d2+    1 5g0     1 5g4+    1 5g2+    1 5g0  
                                   1 5g4+    1 5g2+    1 5g0     1 5g4+    1 5g2+ 

   1.1   2    -2.0050   -8.3496  0.000000 -0.000000  0.000000 -0.000000  0.000000 -0.000000  0.000000 -0.000000  0.000001 -0.000002
                                 0.000006 -0.000014  0.000035 -0.000077  0.000180 -0.000377  0.000839 -0.001683  0.003530 -0.007726
                                 0.019241 -0.051116  0.093207  0.232448  0.205199  0.724323  0.785372  0.233496  0.020586 -0.009997
                                 0.005464 -0.002066 -0.823742 -0.312539 -0.293130  0.000503  0.000000 -0.000000 -0.000000  0.000000
                                 0.000000 -0.000000 -0.000000  0.000000  0.000001 -0.000001 -0.000002  0.000003  0.000006 -0.000010
                                -0.000012  0.000021  0.000028 -0.000048 -0.000100  0.000173  0.000533 -0.000923  0.003299 -0.005714
                                 0.000708 -0.001227 -0.000119  0.000206 -0.000011  0.000019 -0.000017  0.000030 -0.001843  0.003193
                                -0.002311  0.004004  0.001860 -0.003222  0.000004 -0.000007  0.000005  0.000010 -0.000007  0.000002
                                 0.000005 -0.000004 -0.000001 -0.000002  0.000002

   2.1   +    -0.2429   -2.6526 -0.000000  0.000000 -0.000000  0.000000 -0.000000  0.000000 -0.000000  0.000000 -0.000000  0.000001
                                -0.000002  0.000004 -0.000010  0.000023 -0.000054  0.000113 -0.000251  0.000504 -0.001058  0.002317
                                -0.005785  0.015545 -0.030084 -0.060062 -0.032292 -0.207190 -0.281394 -0.298853  0.152832  0.641752
                                 0.387936  0.038971  0.220455  0.081514  0.039396 -0.000375 -0.000000  0.000000  0.000000 -0.000000
                                -0.000000  0.000000  0.000001 -0.000001 -0.000003  0.000005  0.000006 -0.000010 -0.000026  0.000045
                                 0.000032 -0.000055 -0.000017  0.000029  0.000294 -0.000509 -0.002454  0.004250 -0.013120  0.022723
                                -0.008299  0.014374 -0.028335  0.049077 -0.035897  0.062175 -0.005086  0.008809  0.006488 -0.011236
                                 0.006617 -0.011459 -0.008319  0.014410  0.000082 -0.000141 -0.000194 -0.000382  0.000289 -0.000032
                                -0.000064  0.000048 -0.000199 -0.000393  0.000297

   3.1   0     0.0107   -0.7144 -0.000000  0.000000 -0.000000  0.000000 -0.000000  0.000000 -0.000000  0.000000 -0.000000  0.000001
                                -0.000002  0.000005 -0.000011  0.000026 -0.000057  0.000125 -0.000263  0.000539 -0.001043  0.002134
                                -0.004369  0.008958 -0.024549  0.136568  0.765018  1.298840  1.565354 -0.511494  0.882008 -1.988761
                                 2.829303 -4.190445 -0.758862 -0.476908 -2.111318  3.209974 -0.000000  0.000000  0.000000 -0.000000
                                -0.000000  0.000001  0.000001 -0.000002 -0.000004  0.000008  0.000015 -0.000027 -0.000039  0.000067
                                 0.000110 -0.000191 -0.000298  0.000516  0.000739 -0.001280 -0.003384  0.005861 -0.019835  0.034357
                                 0.006642 -0.011505  0.000815 -0.001412  0.013864 -0.024014 -0.009463  0.016391  0.012717 -0.022028
                                 0.014564 -0.025227 -0.001933  0.003349  0.103672 -0.179571 -0.000111 -0.000219  0.000166  0.000036
                                 0.000070 -0.000053  0.000880  0.001736 -0.001312

   4.1   0     0.0188   -0.6290 -0.000000  0.000000 -0.000000  0.000000 -0.000000  0.000000 -0.000000  0.000000 -0.000000  0.000000
                                -0.000000  0.000000 -0.000000  0.000000 -0.000000  0.000000 -0.000000  0.000000 -0.000000  0.000000
                                -0.000000  0.000000 -0.000000  0.000001  0.000004  0.000006  0.000007 -0.000002  0.000004 -0.000009
                                 0.000013 -0.000018 -0.000004 -0.000002 -0.000010  0.000013 -0.000000 -0.000000  0.000001  0.000000
                                -0.000004 -0.000002  0.000019  0.000011 -0.000065 -0.000038  0.000211  0.000122 -0.000564 -0.000325
                                 0.001490  0.000860 -0.003826 -0.002209  0.010214  0.005897 -0.049977 -0.028855 -0.290395 -0.167662
                                 0.058358  0.033694 -0.041776 -0.024119  0.188178  0.108647 -0.317872 -0.183526  0.180191  0.104035
                                 0.204921  0.118313 -0.050086 -0.028917  1.023092  0.590691 -0.000417  0.000493  0.000373  0.000120
                                -0.000142 -0.000107  0.003117 -0.003688 -0.002788

                                   1 2px     1 2px     1 2px     1 2px     1 2px     1 2px     1 2px     1 2px     1 2px     1 2px  
                                   1 2px     1 2px     1 2px     1 2px     1 2px     1 2px     1 2px     1 2px     1 2px     1 2px  
                                   1 2px     1 2px     1 2px     1 2px     1 2px     1 2px     1 2px     1 2px     1 4f1+    1 4f3+ 
                                   1 4f1+    1 4f3+    1 4f1+    1 4f3+    1 4f1+    1 4f3+    1 4f1+    1 4f3+ 

   1.2   2    -1.1233   -6.5332 -0.000000  0.000000 -0.000000  0.000000 -0.000000  0.000001 -0.000003  0.000011 -0.000028  0.000099
                                -0.000224  0.000717 -0.001732  0.004281  0.016533 -0.106172 -0.117120  0.388144  0.376791  0.141844
                                 0.012992  0.001695 -0.002723 -0.000118  0.028971  0.212425  0.046850 -0.000101  0.000780 -0.001007
                                 0.000109 -0.000141  0.000347 -0.000448  0.001547 -0.001997 -0.000189  0.000243

   2.2   +    -0.1451   -2.0724  0.000000 -0.000000  0.000000 -0.000000  0.000000 -0.000000  0.000001 -0.000003  0.000007 -0.000025
                                 0.000057 -0.000181  0.000440 -0.001122 -0.003826  0.026186  0.024730 -0.109029 -0.136334 -0.077914
                                 0.154449  0.457436  0.436745  0.103104 -0.004079 -0.056300 -0.004969  0.000123 -0.000076  0.000098
                                -0.002745  0.003543 -0.000170  0.000219 -0.001083  0.001398 -0.003430  0.004428

   3.2   0     0.0173   -0.5888  0.000000 -0.000000  0.000000 -0.000000  0.000000 -0.000001  0.000003 -0.000010  0.000032 -0.000093
                                 0.000245 -0.000619  0.001494 -0.003751  0.010042 -0.048504 -0.286707 -1.019399 -0.638518  0.482763
                                -0.605989  1.003324 -1.356739  2.297507  0.259120  0.193001  1.261357 -2.232502  0.000642 -0.000829
                                 0.002186 -0.002822 -0.000087  0.000112 -0.001237  0.001596 -0.004233  0.005465

   4.2   0     0.0667   -0.7875  0.000000 -0.000000  0.000000 -0.000000  0.000000 -0.000002  0.000008 -0.000027  0.000084 -0.000237
                                 0.000631 -0.001560  0.003761 -0.009428  0.031355 -0.158500 -0.821517 -2.763456 -1.681084  1.456067
                                -1.935810  2.600644 -4.793996  5.463476  0.725847  0.590112  3.551609 -2.200617 -0.002352  0.003036
                                -0.009060  0.011697  0.000293 -0.000378  0.004412 -0.005695  0.020263 -0.026159

                                   1 2py     1 2py     1 2py     1 2py     1 2py     1 2py     1 2py     1 2py     1 2py     1 2py  
                                   1 2py     1 2py     1 2py     1 2py     1 2py     1 2py     1 2py     1 2py     1 2py     1 2py  
                                   1 2py     1 2py     1 2py     1 2py     1 2py     1 2py     1 2py     1 2py     1 4f1-    1 4f3- 
                                   1 4f1-    1 4f3-    1 4f1-    1 4f3-    1 4f1-    1 4f3-    1 4f1-    1 4f3- 

   1.3   2    -1.1298   -6.5301 -0.000000  0.000000 -0.000000  0.000000 -0.000000  0.000001 -0.000003  0.000011 -0.000028  0.000098
                                -0.000223  0.000712 -0.001719  0.004247  0.016417 -0.105261 -0.116179  0.385896  0.377648  0.147702
                                 0.013917  0.003046 -0.000730  0.000370  0.028556  0.210061  0.043201 -0.000099  0.000252 -0.000975
                                 0.000055 -0.000215  0.000116 -0.000451  0.000530 -0.002052 -0.000063  0.000245

   2.3   0    -0.0025   -1.4365  0.000000 -0.000000  0.000000 -0.000000  0.000000 -0.000000  0.000000 -0.000000  0.000001 -0.000005
                                 0.000006 -0.000040  0.000099 -0.000259 -0.003815  0.023422  0.052999  0.058425 -0.005844 -0.112291
                                 0.150148  0.108378  0.464824  0.015002 -0.035800 -0.061353 -0.163415  0.515729 -0.000234  0.000905
                                -0.001594  0.006173 -0.000012  0.000045  0.000159 -0.000616  0.001445 -0.005595

   3.3   0     0.0190   -0.7747 -0.000000  0.000000 -0.000000  0.000000 -0.000000  0.000001 -0.000003  0.000012 -0.000037  0.000106
                                -0.000277  0.000710 -0.001713  0.004304 -0.009957  0.046390  0.303994  1.128495  0.722338 -0.507670
                                 0.645282 -1.162671  1.379647 -2.684009 -0.278917 -0.196014 -1.365730  2.286540 -0.000093  0.000362
                                 0.000056 -0.000218  0.000029 -0.000114  0.000292 -0.001131  0.000389 -0.001508

                                   1 3d2-    1 3d2-    1 3d2-    1 3d2-    1 3d2-    1 3d2-    1 3d2-    1 3d2-    1 3d2-    1 3d2- 
                                   1 3d2-    1 3d2-    1 3d2-    1 3d2-    1 3d2-    1 3d2-    1 3d2-    1 3d2-    1 3d2-    1 3d2- 
                                   1 5g2-    1 5g4-    1 5g2-    1 5g4-    1 5g2-    1 5g4- 

   1.4   0     0.0199   -0.6795 -0.000000  0.000001 -0.000005  0.000021 -0.000074  0.000244 -0.000640  0.001734 -0.004524  0.011796
                                -0.056596 -0.329721  0.077965 -0.026354  0.255249 -0.339190  0.206587  0.235552 -0.049814  1.145185
                                -0.000253  0.000670  0.000133 -0.000353  0.003112 -0.008234

   2.4   0     0.0424   -1.5148 -0.000000  0.000002 -0.000009  0.000036 -0.000141  0.000399 -0.001241  0.002694 -0.005882  0.019691
                                -0.112091 -0.637423 -0.048717 -0.327702  0.026627 -1.111239  0.367625  0.408472 -0.211763  0.820174
                                -0.000589  0.001558 -0.000389  0.001029 -0.006944  0.018373

                                   1 2pz     1 2pz     1 2pz     1 2pz     1 2pz     1 2pz     1 2pz     1 2pz     1 2pz     1 2pz  
                                   1 2pz     1 2pz     1 2pz     1 2pz     1 2pz     1 2pz     1 2pz     1 2pz     1 2pz     1 2pz  
                                   1 2pz     1 2pz     1 2pz     1 2pz     1 2pz     1 2pz     1 2pz     1 2pz     1 4f0     1 4f2+ 
                                   1 4f0     1 4f2+    1 4f0     1 4f2+    1 4f0     1 4f2+    1 4f0     1 4f2+ 

   1.5   2    -1.1298   -6.5301 -0.000000  0.000000 -0.000000  0.000000 -0.000000  0.000001 -0.000003  0.000011 -0.000028  0.000098
                                -0.000223  0.000712 -0.001719  0.004247  0.016417 -0.105261 -0.116179  0.385896  0.377648  0.147702
                                 0.013917  0.003046 -0.000730  0.000370  0.028556  0.210061  0.043201 -0.000099  0.000617 -0.000796
                                 0.000136 -0.000175  0.000285 -0.000368  0.001298 -0.001675 -0.000155  0.000200

   2.5   0    -0.0025   -1.4365  0.000000 -0.000000  0.000000 -0.000000  0.000000 -0.000000  0.000000 -0.000000  0.000001 -0.000005
                                 0.000006 -0.000040  0.000099 -0.000259 -0.003815  0.023422  0.052999  0.058425 -0.005844 -0.112291
                                 0.150148  0.108378  0.464824  0.015002 -0.035800 -0.061353 -0.163415  0.515729 -0.000572  0.000739
                                -0.003904  0.005040 -0.000028  0.000036  0.000389 -0.000503  0.003538 -0.004568

   3.5   0     0.0190   -0.7747 -0.000000  0.000000 -0.000000  0.000000 -0.000000  0.000001 -0.000003  0.000012 -0.000037  0.000106
                                -0.000277  0.000710 -0.001713  0.004304 -0.009957  0.046390  0.303994  1.128495  0.722338 -0.507670
                                 0.645282 -1.162671  1.379647 -2.684009 -0.278917 -0.196014 -1.365730  2.286540 -0.000229  0.000295
                                 0.000138 -0.000178  0.000072 -0.000093  0.000715 -0.000923  0.000954 -0.001232

                                   1 3d1+    1 3d1+    1 3d1+    1 3d1+    1 3d1+    1 3d1+    1 3d1+    1 3d1+    1 3d1+    1 3d1+ 
                                   1 3d1+    1 3d1+    1 3d1+    1 3d1+    1 3d1+    1 3d1+    1 3d1+    1 3d1+    1 3d1+    1 3d1+ 
                                   1 5g1+    1 5g3+    1 5g1+    1 5g3+    1 5g1+    1 5g3+ 

   1.6   0     0.0199   -0.6795 -0.000000  0.000001 -0.000005  0.000021 -0.000074  0.000244 -0.000640  0.001734 -0.004524  0.011796
                                -0.056596 -0.329721  0.077965 -0.026354  0.255249 -0.339190  0.206587  0.235552 -0.049814  1.145185
                                -0.000537  0.000474  0.000283 -0.000250  0.006602 -0.005822

   2.6   0     0.0424   -1.5148 -0.000000  0.000002 -0.000009  0.000036 -0.000141  0.000399 -0.001241  0.002694 -0.005882  0.019691
                                -0.112091 -0.637423 -0.048717 -0.327702  0.026627 -1.111239  0.367625  0.408472 -0.211763  0.820174
                                -0.001249  0.001101 -0.000825  0.000727 -0.014731  0.012992

                                   1 3d1-    1 3d1-    1 3d1-    1 3d1-    1 3d1-    1 3d1-    1 3d1-    1 3d1-    1 3d1-    1 3d1- 
                                   1 3d1-    1 3d1-    1 3d1-    1 3d1-    1 3d1-    1 3d1-    1 3d1-    1 3d1-    1 3d1-    1 3d1- 
                                   1 5g1-    1 5g3-    1 5g1-    1 5g3-    1 5g1-    1 5g3- 

   1.7   0     0.0188   -0.6290 -0.000000  0.000001 -0.000005  0.000021 -0.000075  0.000243 -0.000651  0.001721 -0.004418  0.011794
                                -0.057709 -0.335321  0.067387 -0.048238  0.217290 -0.367049  0.208068  0.236624 -0.057834  1.181370
                                -0.000264  0.000697  0.000076 -0.000201  0.001971 -0.005216

   2.7   0     0.0468   -1.4459 -0.000000  0.000002 -0.000010  0.000039 -0.000154  0.000439 -0.001349  0.002981 -0.006627  0.021668
                                -0.121754 -0.694790 -0.038227 -0.321064  0.122093 -1.241694  0.402990  0.449654 -0.222424  0.797237
                                -0.000219  0.000580 -0.000291  0.000770 -0.005589  0.014787

                                   1 4f2-    1 4f2-    1 4f2-    1 4f2-    1 4f2- 

   1.8   0     0.1523   -1.0751 -0.064525 -0.202738  0.008875  0.120689  1.108331

   2.8   0     0.4171   -1.3351  0.210888  1.384843 -0.001757 -0.272408 -0.739869

 HOMO      2.2    -0.145094 =      -3.9482eV
 LUMO      2.3    -0.002506 =      -0.0682eV
 LUMO-HOMO         0.142588 =       3.8800eV


 **********************************************************************************************************************************
 DATASETS  * FILE   NREC   LENGTH (MB)   RECORD NAMES
              1      19       20.58       500      610      700      900      950      970     1000      129      960     1100   
                                          VAR    BASINP    GEOM    SYMINP    ZMAT    AOBASIS   BASIS     P2S    ABASIS      S 
                                         1400     1410     1420     1200     1210     1080     1600     1650     1700   
                                           T        V       ECP      H0       H01     AOSYM     SMH    MOLCAS    OPER   

              2       6        8.82       200      700     1000      520     2100     4202   
                                        OPTIONS   GEOM     BASIS   MCVARS     RHF      RHF  

 PROGRAMS   *        TOTAL       RHF  RCCSD(T)       RHF       INT
 CPU TIMES  *        74.82      1.15      6.88      0.68     65.90
 REAL TIME  *        81.47 SEC
 DISK USED  *         1.93 GB      
 SF USED    *       379.23 MB      
 GA USED    *         0.00 MB       (max)       0.00 MB       (current)
 **********************************************************************************************************************************


 PROGRAM * POP (Mulliken population analysis)

 
 Density matrix read from record         4202.2  Type=RHF/CHARGE (state 1.2)
 
 Population analysis by basis function type

 Unique atom        s        p        d        f        g    Total    Charge
   1  SR      2.97970  6.99982  0.02030  0.00018  0.00000 10.00000  + 0.00000


 **********************************************************************************************************************************
 DATASETS  * FILE   NREC   LENGTH (MB)   RECORD NAMES
              1      19       20.58       500      610      700      900      950      970     1000      129      960     1100   
                                          VAR    BASINP    GEOM    SYMINP    ZMAT    AOBASIS   BASIS     P2S    ABASIS      S 
                                         1400     1410     1420     1200     1210     1080     1600     1650     1700   
                                           T        V       ECP      H0       H01     AOSYM     SMH    MOLCAS    OPER   

              2       6        8.82       200      700     1000      520     2100     4202   
                                        OPTIONS   GEOM     BASIS   MCVARS     RHF      RHF  

 PROGRAMS   *        TOTAL       POP       RHF  RCCSD(T)       RHF       INT
 CPU TIMES  *        74.82      0.00      1.15      6.88      0.68     65.90
 REAL TIME  *        81.48 SEC
 DISK USED  *         1.93 GB      
 SF USED    *       379.23 MB      
 GA USED    *         0.00 MB       (max)       0.00 MB       (current)
 **********************************************************************************************************************************


 PROGRAM * MULTI (Direct Multiconfiguration SCF)       Authors: P.J. Knowles, H.-J. Werner (1984)     S.T. Elbert (1988)


 Number of closed-shell orbitals:   4 (   1   1   1   0   1   0   0   0 )
 Number of active  orbitals:        4 (   1   1   1   0   1   0   0   0 )
 Number of external orbitals:     274 (  83  36  36  26  36  26  26   5 )

 State symmetry 1

 Orbital occupancy restrictions for symmetry 2
  1      1       2000                            

 Number of electrons:     2    Spin symmetry=Triplet   Space symmetry=2
 Number of states:        1
 Number of CSFs:          1

 State symmetry 2

 Orbital occupancy restrictions for symmetry 3
  1      1       2000                            

 Number of electrons:     2    Spin symmetry=Triplet   Space symmetry=3
 Number of states:        1
 Number of CSFs:          1

 State symmetry 3

 Orbital occupancy restrictions for symmetry 5
  1      1       2000                            

 Number of electrons:     2    Spin symmetry=Triplet   Space symmetry=5
 Number of states:        1
 Number of CSFs:          1
 
 Maximum number of shells:             1
 Maximum number of spin couplings:     1

 Storage for configuration lists      14, coupling coefficients      2, address lists     69

 Molecular orbitals read from record     4202.2  Type=RHF/CANONICAL (state 1.2)
 *** IN SYMMETRY 1 ORBITAL  1 SYMMETRY CONTAMINATION OF 0.770D-02 HAS BEEN REMOVED
 *** IN SYMMETRY 1 ORBITAL  2 SYMMETRY CONTAMINATION OF 0.112D+00 HAS BEEN REMOVED

 EXTRA SYMMETRY OF MOS IN SYMMETRY 1:   1 1 1 2 3 1 2 1 2 3   1 2 3 4 5 6 1 2 3 4   5 6 1 3 3 4 5 6 1 2   3 2 3 1 2 3 1 2 3 1
                                        2 3 1 2 3 1 2 3 1 2   3 1 1 2 3 1 2 3 1 2   3 1 1 2 3 1 2 3 1 1   2 3 1 1 1 1 1 1 1 1
                                        1 1 1 1 2
 *** IN SYMMETRY 2 ORBITAL  1 SYMMETRY CONTAMINATION OF 0.464D-02 HAS BEEN REMOVED
 *** IN SYMMETRY 2 ORBITAL  2 SYMMETRY CONTAMINATION OF 0.106D-01 HAS BEEN REMOVED
 EXTRA SYMMETRY OF MOS IN SYMMETRY 2:   1 1 1 1 2 1 1 2 3 1   1 2 3 1 2 3 1 2 3 1   1 1 1 1 1 1 1 1 1 1   1 1 1 1 1 1 1 3
 *** IN SYMMETRY 3 ORBITAL  1 SYMMETRY CONTAMINATION OF 0.339D-02 HAS BEEN REMOVED
 *** IN SYMMETRY 3 ORBITAL  2 SYMMETRY CONTAMINATION OF 0.938D-02 HAS BEEN REMOVED
 EXTRA SYMMETRY OF MOS IN SYMMETRY 3:   1 1 1 1 2 3 1 2 3 1   1 2 3 1 2 3 1 2 3 1   1 1 1 1 1 1 1 1 1 1   1 1 1 1 1 1 1 1
 EXTRA SYMMETRY OF MOS IN SYMMETRY 4:   1 1 1 1 2 3 1 2 3 1   2 3 1 1 1 1 1 1 1 1   1 1 1 1 1 1
 *** IN SYMMETRY 5 ORBITAL  1 SYMMETRY CONTAMINATION OF 0.390D-02 HAS BEEN REMOVED
 *** IN SYMMETRY 5 ORBITAL  2 SYMMETRY CONTAMINATION OF 0.108D-01 HAS BEEN REMOVED
 EXTRA SYMMETRY OF MOS IN SYMMETRY 5:   1 1 1 1 2 1 1 2 3 1   1 2 1 1 2 3 1 3 3 1   1 1 1 1 1 1 1 1 1 1   1 1 1 1 1 1 2 3
 EXTRA SYMMETRY OF MOS IN SYMMETRY 6:   1 1 1 1 3 2 1 3 2 1   3 2 1 1 1 1 1 1 1 1   1 1 1 1 1 1
 EXTRA SYMMETRY OF MOS IN SYMMETRY 7:   1 1 1 1 2 3 1 2 3 1   2 3 1 1 1 1 1 1 1 1   1 1 1 1 1 1

 Wavefunction dump at record             5202.2

 Convergence thresholds  0.10E-01 (gradient)  0.10E-05 (energy)  0.10E-02 (step length)

 Weight factors for state symmetry  1:    0.33333
 Weight factors for state symmetry  2:    0.33333
 Weight factors for state symmetry  3:    0.33333

 Number of orbital rotations:      386   (     4 Core/Active    191 Core/Virtual   0 Active/Active    191 Active/Virtual)
 Total number of variables:        389


 ITER. MIC  NCI  NEG     ENERGY(VAR)     ENERGY(PROJ)   ENERGY CHANGE     GRAD(0)  GRAD(ORB)   GRAD(CI)     STEP       TIME

   1   40   21    0     -30.29048874     -30.30375992   -0.01327118    4.00970570 0.08533653 0.00000000  0.64D+00      0.26
   2   33   24    0     -28.27648391     -30.30291304   -2.02642913   *********** 0.00001197 0.00000000  0.37D-02      0.50
   3   27   15    0     -30.30291304     -30.30291304   -0.00000000    0.00001212 0.00000000 0.00000000  0.78D-05      0.70

 ** WVFN ****  CONVERGENCE REACHED, FINAL GRADIENT:  0.72D-09



 Results for state 1.2
 =====================

 !MCSCF STATE 1.2 Energy              -30.302913037519
 Nuclear energy                         0.00000000
 Kinetic energy                         9.51347888
 One electron energy                  -49.43916044
 Two electron energy                   19.13624740
 Virial ratio                           4.18526098

 !MCSCF STATE 1.2 Dipole moment         0.00000000     0.00000000     0.00000000
 Dipole moment /Debye                   0.00000000     0.00000000     0.00000000



 Results for state 1.3
 =====================

 !MCSCF STATE 1.3 Energy              -30.302913037519
 Nuclear energy                         0.00000000
 Kinetic energy                         9.51347888
 One electron energy                  -49.43916044
 Two electron energy                   19.13624740
 Virial ratio                           4.18526098

 !MCSCF STATE 1.3 Dipole moment         0.00000000     0.00000000     0.00000000
 Dipole moment /Debye                   0.00000000     0.00000000     0.00000000



 Results for state 1.5
 =====================

 !MCSCF STATE 1.5 Energy              -30.302913037519
 Nuclear energy                         0.00000000
 Kinetic energy                         9.51347888
 One electron energy                  -49.43916044
 Two electron energy                   19.13624740
 Virial ratio                           4.18526098

 !MCSCF STATE 1.5 Dipole moment         0.00000000     0.00000000     0.00000000
 Dipole moment /Debye                   0.00000000     0.00000000     0.00000000

 State-averaged charge density matrix saved on record  5202.2 (density set 1)


 NATURAL ORBITALS (state averaged)
 =================================

   Orb     Occ        Energy       Coefficients

                                   1 1s      1 1s      1 1s      1 1s      1 1s      1 1s      1 1s      1 1s      1 1s      1 1s   
                                   1 1s      1 1s      1 1s      1 1s      1 1s      1 1s      1 1s      1 1s      1 1s      1 1s   
                                   1 1s      1 1s      1 1s      1 1s      1 1s      1 1s      1 1s      1 1s      1 1s      1 1s   
                                   1 1s      1 1s      1 1s      1 1s      1 1s      1 1s      1 3d0     1 3d2+    1 3d0     1 3d2+ 
                                   1 3d0     1 3d2+    1 3d0     1 3d2+    1 3d0     1 3d2+    1 3d0     1 3d2+    1 3d0     1 3d2+ 
                                   1 3d0     1 3d2+    1 3d0     1 3d2+    1 3d0     1 3d2+    1 3d0     1 3d2+    1 3d0     1 3d2+ 
                                   1 3d0     1 3d2+    1 3d0     1 3d2+    1 3d0     1 3d2+    1 3d0     1 3d2+    1 3d0     1 3d2+ 
                                   1 3d0     1 3d2+    1 3d0     1 3d2+    1 3d0     1 3d2+    1 5g0     1 5g4+    1 5g2+    1 5g0  
                                   1 5g4+    1 5g2+    1 5g0     1 5g4+    1 5g2+ 

   1.1  2.00000    -2.006356     0.000000 -0.000000  0.000000 -0.000000  0.000000 -0.000000  0.000000 -0.000000  0.000001 -0.000002
                                 0.000006 -0.000014  0.000035 -0.000077  0.000180 -0.000377  0.000839 -0.001683  0.003530 -0.007727
                                 0.019242 -0.051120  0.093213  0.232467  0.205251  0.724515  0.785500  0.233290  0.020557 -0.009875
                                 0.005503 -0.002054 -0.823837 -0.312596 -0.293234  0.000502  0.000000  0.000000  0.000000  0.000000
                                 0.000000  0.000000  0.000000  0.000000  0.000000  0.000000  0.000000  0.000000  0.000000  0.000000
                                 0.000000  0.000000  0.000000  0.000000  0.000000  0.000000  0.000000  0.000000  0.000000  0.000000
                                 0.000000  0.000000  0.000000  0.000000  0.000000  0.000000  0.000000  0.000000  0.000000  0.000000
                                 0.000000  0.000000  0.000000  0.000000  0.000000  0.000000  0.000000  0.000000  0.000000  0.000000
                                 0.000000  0.000000  0.000000  0.000000  0.000000

   2.1  1.00000    -0.120365    -0.000000  0.000000 -0.000000  0.000000 -0.000000  0.000000 -0.000000  0.000000 -0.000000  0.000001
                                -0.000002  0.000004 -0.000011  0.000023 -0.000055  0.000114 -0.000255  0.000511 -0.001073  0.002351
                                -0.005873  0.015789 -0.030541 -0.061415 -0.034739 -0.214581 -0.292543 -0.300799  0.163209  0.644753
                                 0.388422  0.039713  0.226100  0.084183  0.046810 -0.000334  0.000000  0.000000  0.000000  0.000000
                                 0.000000  0.000000  0.000000  0.000000  0.000000  0.000000  0.000000  0.000000  0.000000  0.000000
                                 0.000000  0.000000  0.000000  0.000000  0.000000  0.000000  0.000000  0.000000  0.000000  0.000000
                                 0.000000  0.000000  0.000000  0.000000  0.000000  0.000000  0.000000  0.000000  0.000000  0.000000
                                 0.000000  0.000000  0.000000  0.000000  0.000000  0.000000  0.000000  0.000000  0.000000  0.000000
                                 0.000000  0.000000  0.000000  0.000000  0.000000

                                   1 2px     1 2px     1 2px     1 2px     1 2px     1 2px     1 2px     1 2px     1 2px     1 2px  
                                   1 2px     1 2px     1 2px     1 2px     1 2px     1 2px     1 2px     1 2px     1 2px     1 2px  
                                   1 2px     1 2px     1 2px     1 2px     1 2px     1 2px     1 2px     1 2px     1 4f1+    1 4f3+ 
                                   1 4f1+    1 4f3+    1 4f1+    1 4f3+    1 4f1+    1 4f3+    1 4f1+    1 4f3+ 

   1.2  2.00000    -1.128824    -0.000000  0.000000 -0.000000  0.000000 -0.000000  0.000001 -0.000003  0.000011 -0.000028  0.000098
                                -0.000223  0.000713 -0.001723  0.004257  0.016452 -0.105538 -0.116482  0.386530  0.377185  0.145624
                                 0.013800  0.003169 -0.000833  0.000336  0.028703  0.210797  0.044418 -0.000100  0.000000  0.000000
                                 0.000000  0.000000  0.000000  0.000000  0.000000  0.000000  0.000000  0.000000

   2.2  0.33333     0.007090     0.000000 -0.000000  0.000000 -0.000000  0.000000 -0.000000  0.000001 -0.000003  0.000007 -0.000025
                                 0.000057 -0.000181  0.000440 -0.001122 -0.003855  0.026315  0.025142 -0.108391 -0.135113 -0.078168
                                 0.147503  0.442707  0.444159  0.116812 -0.004369 -0.056544 -0.005736  0.000613  0.000000  0.000000
                                 0.000000  0.000000  0.000000  0.000000  0.000000  0.000000  0.000000  0.000000

                                   1 2py     1 2py     1 2py     1 2py     1 2py     1 2py     1 2py     1 2py     1 2py     1 2py  
                                   1 2py     1 2py     1 2py     1 2py     1 2py     1 2py     1 2py     1 2py     1 2py     1 2py  
                                   1 2py     1 2py     1 2py     1 2py     1 2py     1 2py     1 2py     1 2py     1 4f1-    1 4f3- 
                                   1 4f1-    1 4f3-    1 4f1-    1 4f3-    1 4f1-    1 4f3-    1 4f1-    1 4f3- 

   1.3  2.00000    -1.128824    -0.000000  0.000000 -0.000000  0.000000 -0.000000  0.000001 -0.000003  0.000011 -0.000028  0.000098
                                -0.000223  0.000713 -0.001723  0.004257  0.016452 -0.105538 -0.116482  0.386530  0.377185  0.145624
                                 0.013800  0.003169 -0.000833  0.000336  0.028703  0.210797  0.044418 -0.000100  0.000000  0.000000
                                 0.000000  0.000000  0.000000  0.000000  0.000000  0.000000  0.000000  0.000000

   2.3  0.33333     0.007090     0.000000 -0.000000  0.000000 -0.000000  0.000000 -0.000000  0.000001 -0.000003  0.000007 -0.000025
                                 0.000057 -0.000181  0.000440 -0.001122 -0.003855  0.026315  0.025142 -0.108391 -0.135113 -0.078168
                                 0.147503  0.442707  0.444159  0.116812 -0.004369 -0.056544 -0.005736  0.000613  0.000000  0.000000
                                 0.000000  0.000000  0.000000  0.000000  0.000000  0.000000  0.000000  0.000000

                                   1 2pz     1 2pz     1 2pz     1 2pz     1 2pz     1 2pz     1 2pz     1 2pz     1 2pz     1 2pz  
                                   1 2pz     1 2pz     1 2pz     1 2pz     1 2pz     1 2pz     1 2pz     1 2pz     1 2pz     1 2pz  
                                   1 2pz     1 2pz     1 2pz     1 2pz     1 2pz     1 2pz     1 2pz     1 2pz     1 4f0     1 4f2+ 
                                   1 4f0     1 4f2+    1 4f0     1 4f2+    1 4f0     1 4f2+    1 4f0     1 4f2+ 

   1.5  2.00000    -1.128824    -0.000000  0.000000 -0.000000  0.000000 -0.000000  0.000001 -0.000003  0.000011 -0.000028  0.000098
                                -0.000223  0.000713 -0.001723  0.004257  0.016452 -0.105538 -0.116482  0.386530  0.377185  0.145624
                                 0.013800  0.003169 -0.000833  0.000336  0.028703  0.210797  0.044418 -0.000100  0.000000  0.000000
                                 0.000000  0.000000  0.000000  0.000000  0.000000  0.000000  0.000000  0.000000

   2.5  0.33333     0.007090     0.000000 -0.000000  0.000000 -0.000000  0.000000 -0.000000  0.000001 -0.000003  0.000007 -0.000025
                                 0.000057 -0.000181  0.000440 -0.001122 -0.003855  0.026315  0.025142 -0.108391 -0.135113 -0.078168
                                 0.147503  0.442707  0.444159  0.116812 -0.004369 -0.056544 -0.005736  0.000613  0.000000  0.000000
                                 0.000000  0.000000  0.000000  0.000000  0.000000  0.000000  0.000000  0.000000
 

 EXTRA SYMMETRY OF MOS IN SYMMETRY 1:   1 1 1 3 2 2 3 1 3 2   1 3 2 4 6 5 1 2 3 5   4 6 1 2 3 6 5 4 1 2   3 2 3 1 2 3 1 2 3 1
                                        2 3 1 2 3 1 2 3 1 3   2 1 1 2 3 1 2 3 1 3   2 1 1 2 3 1 2 3 1 1   2 3 1 1 1 1 1 1 1 1
                                        1 1 1 1 1
 EXTRA SYMMETRY OF MOS IN SYMMETRY 2:   1 1 1 1 3 2 1 2 3 1   1 3 2 1 2 3 1 3 2 1   1 1 1 1 1 1 1 1 1 1   1 1 1 1 1 1 1 1
 EXTRA SYMMETRY OF MOS IN SYMMETRY 3:   1 1 1 1 2 3 1 2 3 1   1 2 3 1 3 2 1 3 2 1   1 1 1 1 1 1 1 1 1 1   1 1 1 1 1 1 1 1
 EXTRA SYMMETRY OF MOS IN SYMMETRY 4:   1 1 1 1 2 3 1 3 2 1   3 2 1 1 1 1 1 1 1 1   1 1 1 1 1 1
 EXTRA SYMMETRY OF MOS IN SYMMETRY 5:   1 1 1 1 2 3 1 2 3 1   1 2 3 1 3 2 1 3 2 1   1 1 1 1 1 1 1 1 1 1   1 1 1 1 1 1 1 1
 EXTRA SYMMETRY OF MOS IN SYMMETRY 6:   1 1 1 1 3 2 1 2 3 1   2 3 1 1 1 1 1 1 1 1   1 1 1 1 1 1

 Natural orbital dump (state averaged) at molpro section  5202.2    (Orbital set 2)


 CI vector for state symmetry 1
 ==============================

 / / 0 0          1.0000000

 CI vector for state symmetry 2
 ==============================

 / 0 / 0          1.0000000

 CI vector for state symmetry 3
 ==============================

 / 0 0 /          1.0000000


 **********************************************************************************************************************************
 DATASETS  * FILE   NREC   LENGTH (MB)   RECORD NAMES
              1      20       25.61       500      610      700      900      950      970     1000      129      960     1100   
                                          VAR    BASINP    GEOM    SYMINP    ZMAT    AOBASIS   BASIS     P2S    ABASIS      S 
                                         1400     1410     1420     1200     1210     1080     1600     1650     1700     1380   
                                           T        V       ECP      H0       H01     AOSYM     SMH    MOLCAS    OPER     JKOP   

              2       7       11.81       200      700     1000      520     2100     4202     5202   
                                        OPTIONS   GEOM     BASIS   MCVARS     RHF      RHF     MCSCF   

 PROGRAMS   *        TOTAL     MULTI       POP       RHF  RCCSD(T)       RHF       INT
 CPU TIMES  *        75.76      0.94      0.00      1.15      6.88      0.68     65.90
 REAL TIME  *        84.35 SEC
 DISK USED  *         1.93 GB      
 SF USED    *       379.23 MB      
 GA USED    *         0.00 MB       (max)       0.00 MB       (current)
 **********************************************************************************************************************************


 PROGRAM * RHF-SCF (OPEN SHELL)       Authors: W. Meyer, H.-J. Werner


 NUMBER OF ELECTRONS:       6+    4-    SPACE SYMMETRY=2    SPIN SYMMETRY: Triplet 
 CONVERGENCE THRESHOLDS:    1.00E-05 (Density)    1.00E-07 (Energy)
 MAX. NUMBER OF ITERATIONS:        0
 INTERPOLATION TYPE:            DIIS
 INTERPOLATION STEPS:              2 (START)      1 (STEP)
 LEVEL SHIFTS:                 -0.60 (CLOSED) -0.30 (OPEN) 


 Singly occupied orbitals:      2.1       2.2
 Molecular orbitals read from record     5202.2  Type=MCSCF/NATURAL  

 Molecular orbital dump at record        2102.2

 ITERATION    DDIFF          GRAD             ENERGY        2-EL.EN.            DIPOLE MOMENTS         DIIS   ORB.
    1      0.000D+00      0.000D+00       -30.30291304     38.272495    0.00000    0.00000    0.00000    0    start

 Final alpha occupancy:   2   2   1   0   1   0   0   0
 Final beta  occupancy:   1   1   1   0   1   0   0   0

 !RHF STATE 1.2 Energy                -30.302913037519
 Nuclear energy                         0.00000000
 One-electron energy                  -49.43916044
 Two-electron energy                   19.13624740
 Virial quotient                       -3.18526098
 !RHF STATE 1.2 Dipole moment           0.00000000     0.00000000     0.00000000
 Dipole moment /Debye                   0.00000000     0.00000000     0.00000000

 Orbital energies:

         1.1          2.1          3.1          4.1
     -2.006356    -0.120365     0.012196     0.020343

         1.2          2.2          3.2          4.2
     -1.128824     0.007090     0.016784     0.068970

         1.3          2.3          3.3
     -1.128824     0.007090     0.016784

         1.4          2.4
      0.020344     0.053702

         1.5          2.5          3.5
     -1.128824     0.007090     0.016784

         1.6          2.6
      0.020344     0.053702

         1.7          2.7
      0.020344     0.053702

         1.8          2.8
      0.157400     0.426134

 HOMO      2.2     0.007090 =       0.1929eV
 LUMO      2.3     0.007090 =       0.1929eV
 LUMO-HOMO         0.000000 =       0.0000eV


 **********************************************************************************************************************************
 DATASETS  * FILE   NREC   LENGTH (MB)   RECORD NAMES
              1      20       25.61       500      610      700      900      950      970     1000      129      960     1100   
                                          VAR    BASINP    GEOM    SYMINP    ZMAT    AOBASIS   BASIS     P2S    ABASIS      S 
                                         1400     1410     1420     1200     1210     1080     1600     1650     1700     1380   
                                           T        V       ECP      H0       H01     AOSYM     SMH    MOLCAS    OPER     JKOP   

              2       8       14.93       200      700     1000      520     2100     4202     5202     2102   
                                        OPTIONS   GEOM     BASIS   MCVARS     RHF      RHF     MCSCF     RHF  

 PROGRAMS   *        TOTAL       RHF     MULTI       POP       RHF  RCCSD(T)       RHF       INT
 CPU TIMES  *        75.82      0.06      0.94      0.00      1.15      6.88      0.68     65.90
 REAL TIME  *        84.57 SEC
 DISK USED  *         1.93 GB      
 SF USED    *       379.23 MB      
 GA USED    *         0.00 MB       (max)       0.00 MB       (current)
 **********************************************************************************************************************************
 SETTING SCF(2)         =       -30.30291304  AU                              
 SETTING _CC_NORM_MAX   =         2.00000000                                  


 PROGRAM * CCSD (Restricted open-shell coupled cluster)     Authors: C. Hampel, H.-J. Werner, 1991, M. Deegan, P.J. Knowles, 1992


 Convergence thresholds:  THRVAR = 1.00D-08  THRDEN = 1.00D-06

 CCSD(T)     terms to be evaluated (factor= 1.000)


 Number of closed-shell orbitals:   4 (   1   1   1   0   1   0   0   0 )
 Number of active  orbitals:        2 (   1   1   0   0   0   0   0   0 )
 Number of external orbitals:     276 (  83  36  37  26  37  26  26   5 )

 Memory could be reduced to 37.37 Mwords without degradation in triples

 Number of N-1 electron functions:              10
 Number of N-2 electron functions:              45
 Number of singly external CSFs:               511
 Number of doubly external CSFs:            358192
 Total number of CSFs:                      358703

 Molecular orbitals read from record     2102.2  Type=RHF/CANONICAL (state 1.2)

 Integral transformation finished. Total CPU:   0.59 sec, npass=  1  Memory used:   5.08 MW

 Starting RMP2 calculation

 Wavefunction is spin-projected

 ITER.      SQ.NORM     CORR.ENERGY   TOTAL ENERGY   ENERGY CHANGE        DEN1      VAR(S)    VAR(P)  DIIS     TIME
   1      1.06767803    -0.24053343   -30.54344647    -0.24053343    -0.00081789  0.18D-03  0.36D-03  1  1     0.61
   2      1.06913659    -0.24141330   -30.54432634    -0.00087987    -0.00001452  0.18D-04  0.89D-05  2  2     0.71
   3      1.06951963    -0.24148239   -30.54439543    -0.00006909    -0.00000020  0.30D-06  0.65D-07  3  3     0.73
   4      1.06955497    -0.24148596   -30.54439900    -0.00000357    -0.00000000  0.42D-08  0.15D-08  4  4     0.74
   5      1.06955790    -0.24148633   -30.54439937    -0.00000037    -0.00000000  0.33D-10  0.13D-10  5  5     0.77

 Norm of t1 vector:      0.05904228      S-energy:    -0.00126193      T1 diagnostic:  0.01307254
 Norm of t2 vector:      0.25704456      P-energy:    -0.24022440
                                         Alpha-Beta:  -0.17840418
                                         Alpha-Alpha: -0.03658293
                                         Beta-Beta:   -0.02523729

 Spin contamination <S**2-Sz**2-Sz>     0.00000000
  Reference energy                    -30.302913037519
  RHF-RMP2 correlation energy          -0.241486328467
 !RHF-RMP2 energy                     -30.544399365985
 (NB above energy spin projected)

 Starting RCCSD calculation

 ITER.      SQ.NORM     CORR.ENERGY   TOTAL ENERGY   ENERGY CHANGE        DEN1      VAR(S)    VAR(P)  DIIS     TIME
   1      1.07409780    -0.25056373   -30.55347677    -0.25056373    -0.00507280  0.95D-03  0.14D-02  1  1     1.14
   2      1.08222442    -0.25614673   -30.55905976    -0.00558300    -0.00030800  0.24D-03  0.16D-03  2  2     1.47
   3      1.08668885    -0.25696702   -30.55988006    -0.00082029    -0.00007246  0.71D-04  0.49D-04  3  3     1.81
   4      1.09068242    -0.25740984   -30.56032288    -0.00044282    -0.00001420  0.10D-04  0.11D-04  4  4     2.14
   5      1.09292208    -0.25756227   -30.56047530    -0.00015243    -0.00000339  0.25D-05  0.25D-05  5  5     2.44
   6      1.09389861    -0.25759680   -30.56050984    -0.00003454    -0.00000057  0.55D-06  0.30D-06  6  6     2.77
   7      1.09410722    -0.25760149   -30.56051453    -0.00000468    -0.00000008  0.79D-07  0.44D-07  6  1     3.10
   8      1.09415162    -0.25760295   -30.56051599    -0.00000146    -0.00000001  0.85D-08  0.96D-08  6  2     3.43
   9      1.09416356    -0.25760377   -30.56051680    -0.00000082    -0.00000000  0.13D-08  0.17D-08  6  5     3.78

 Norm of t1 vector:      0.11268988      S-energy:    -0.00179984      T1 diagnostic:  0.02511004
                                                                       D1 diagnostic:  0.07534557
 Norm of t2 vector:      0.28541995      P-energy:    -0.25580393
                                         Alpha-Beta:  -0.19500216
                                         Alpha-Alpha: -0.03671104
                                         Beta-Beta:   -0.02409073

 Singles amplitudes (print threshold =  0.500E-01):

         I         SYM. A    A   T(IA) [Alpha-Alpha]

         2         1         6      0.06146662

 Doubles amplitudes (print threshold =  0.500E-01):

         I         J         SYM. A    SYM. B    A         B      T(IJ, AB) [Alpha-Alpha]

[...]
                                 0.000000 -0.000000  0.000000 -0.000000 -0.000000 -0.000000 -0.000000  0.000000 -0.000000 -0.000000
                                -0.000000  0.000000  0.000000  0.000000  0.000000 -0.000000  0.000000  0.000000 -0.000000 -0.000000
                                 0.000002  0.000001 -0.000001 -0.000000  0.000033  0.000015  0.000004  0.000002  0.000318  0.000142
                                 0.000258  0.000115 -0.002614 -0.001167 -0.000388 -0.000173  0.031940  0.014253  0.160460  0.071603
                                 0.321716  0.143561  0.356863  0.159245  0.149524  0.066723  0.000871  0.000389 -0.046224 -0.020627
                                -0.036857 -0.016447  0.223869  0.099898  0.001230  0.000549  0.000000 -0.000000 -0.000000  0.000000
                                 0.000000 -0.000000 -0.000000 -0.000000  0.000000

                                   1 2px     1 2px     1 2px     1 2px     1 2px     1 2px     1 2px     1 2px     1 2px     1 2px  
                                   1 2px     1 2px     1 2px     1 2px     1 2px     1 2px     1 2px     1 2px     1 2px     1 2px  
                                   1 2px     1 2px     1 2px     1 2px     1 2px     1 2px     1 2px     1 2px     1 4f1+    1 4f3+ 
                                   1 4f1+    1 4f3+    1 4f1+    1 4f3+    1 4f1+    1 4f3+    1 4f1+    1 4f3+ 

   1.2   2    -1.5794   -6.9930 -0.000000  0.000000 -0.000000  0.000000 -0.000000  0.000001 -0.000003  0.000011 -0.000028  0.000099
                                -0.000226  0.000720 -0.001740  0.004302  0.016498 -0.105983 -0.115787  0.392984  0.385395  0.140673
                                 0.005244  0.001947 -0.000961  0.000400  0.027622  0.211766  0.038983 -0.000106  0.000000  0.000000
                                 0.000000  0.000000 -0.000000 -0.000000 -0.000000 -0.000000 -0.000000 -0.000000

   2.2   0    -0.2828   -2.3526  0.000000 -0.000000  0.000000 -0.000000  0.000000 -0.000000  0.000001 -0.000003  0.000008 -0.000029
                                 0.000067 -0.000212  0.000517 -0.001321 -0.004295  0.029754  0.026155 -0.131814 -0.162826 -0.091363
                                 0.217474  0.605439  0.320439  0.008121 -0.002867 -0.063643  0.002327  0.001508 -0.000000  0.000000
                                 0.000000  0.000000  0.000000 -0.000000  0.000000 -0.000000  0.000000 -0.000000

   3.2   0    -0.1464   -1.2854 -0.000000  0.000000 -0.000000  0.000000 -0.000000  0.000000 -0.000001  0.000002 -0.000007  0.000023
                                -0.000053  0.000162 -0.000394  0.001008  0.002149 -0.016097 -0.001726  0.134348  0.141504  0.042812
                                -0.170634 -0.761187  0.073629  1.050758 -0.011208  0.030322 -0.065571  0.111805 -0.000000  0.000000
                                -0.000000  0.000000 -0.000000  0.000000  0.000000 -0.000000  0.000000 -0.000000

                                   1 2py     1 2py     1 2py     1 2py     1 2py     1 2py     1 2py     1 2py     1 2py     1 2py  
                                   1 2py     1 2py     1 2py     1 2py     1 2py     1 2py     1 2py     1 2py     1 2py     1 2py  
                                   1 2py     1 2py     1 2py     1 2py     1 2py     1 2py     1 2py     1 2py     1 4f1-    1 4f3- 
                                   1 4f1-    1 4f3-    1 4f1-    1 4f3-    1 4f1-    1 4f3-    1 4f1-    1 4f3- 

   1.3   2    -1.5794   -6.9930 -0.000000  0.000000 -0.000000  0.000000 -0.000000  0.000001 -0.000003  0.000011 -0.000028  0.000099
                                -0.000226  0.000720 -0.001740  0.004302  0.016498 -0.105983 -0.115787  0.392984  0.385395  0.140673
                                 0.005244  0.001947 -0.000961  0.000400  0.027622  0.211766  0.038983 -0.000106  0.000000  0.000000
                                 0.000000  0.000000 -0.000000 -0.000000 -0.000000 -0.000000 -0.000000 -0.000000

   2.3   0    -0.2828   -2.3526  0.000000 -0.000000  0.000000 -0.000000  0.000000 -0.000000  0.000001 -0.000003  0.000008 -0.000029
                                 0.000067 -0.000212  0.000517 -0.001321 -0.004295  0.029754  0.026155 -0.131814 -0.162826 -0.091363
                                 0.217474  0.605439  0.320439  0.008121 -0.002868 -0.063643  0.002327  0.001508 -0.000000 -0.000000
                                 0.000000  0.000000  0.000000  0.000000  0.000000  0.000000  0.000000  0.000000

   3.3   0    -0.1464   -1.2854 -0.000000  0.000000 -0.000000  0.000000 -0.000000  0.000000 -0.000001  0.000002 -0.000007  0.000023
                                -0.000053  0.000162 -0.000394  0.001008  0.002149 -0.016097 -0.001726  0.134348  0.141504  0.042812
                                -0.170634 -0.761187  0.073629  1.050758 -0.011208  0.030322 -0.065571  0.111805  0.000000 -0.000000
                                -0.000000  0.000000 -0.000000  0.000000 -0.000000  0.000000 -0.000000  0.000000

                                   1 3d2-    1 3d2-    1 3d2-    1 3d2-    1 3d2-    1 3d2-    1 3d2-    1 3d2-    1 3d2-    1 3d2- 
                                   1 3d2-    1 3d2-    1 3d2-    1 3d2-    1 3d2-    1 3d2-    1 3d2-    1 3d2-    1 3d2-    1 3d2- 
                                   1 5g2-    1 5g4-    1 5g2-    1 5g4-    1 5g2-    1 5g4- 

   1.4   0    -0.3063   -3.4454  0.000000 -0.000000  0.000002 -0.000001  0.000037  0.000005  0.000348  0.000283 -0.002863 -0.000425
                                 0.034976  0.175711  0.352294  0.390781  0.163736  0.000954 -0.050618 -0.040360  0.245147  0.001347
                                 0.000000  0.000000 -0.000000  0.000000 -0.000000  0.000000

   2.4   0    -0.1559   -1.5766 -0.000000  0.000000 -0.000002  0.000005 -0.000035  0.000047 -0.000321  0.000197  0.000666  0.002547
                                -0.030764 -0.163602 -0.194266 -0.195621  0.471615  0.640691  0.069144  0.070133 -0.146706  0.015243
                                -0.000000  0.000000  0.000000 -0.000000  0.000000 -0.000000

                                   1 2pz     1 2pz     1 2pz     1 2pz     1 2pz     1 2pz     1 2pz     1 2pz     1 2pz     1 2pz  
                                   1 2pz     1 2pz     1 2pz     1 2pz     1 2pz     1 2pz     1 2pz     1 2pz     1 2pz     1 2pz  
                                   1 2pz     1 2pz     1 2pz     1 2pz     1 2pz     1 2pz     1 2pz     1 2pz     1 4f0     1 4f2+ 
                                   1 4f0     1 4f2+    1 4f0     1 4f2+    1 4f0     1 4f2+    1 4f0     1 4f2+ 

   1.5   2    -1.5794   -6.9930 -0.000000  0.000000 -0.000000  0.000000 -0.000000  0.000001 -0.000003  0.000011 -0.000028  0.000099
                                -0.000226  0.000720 -0.001740  0.004302  0.016498 -0.105983 -0.115787  0.392984  0.385395  0.140673
                                 0.005244  0.001947 -0.000961  0.000400  0.027622  0.211766  0.038983 -0.000106  0.000000  0.000000
                                 0.000000  0.000000 -0.000000 -0.000000 -0.000000 -0.000000 -0.000000 -0.000000

   2.5   0    -0.2828   -2.3526  0.000000 -0.000000  0.000000 -0.000000  0.000000 -0.000000  0.000001 -0.000003  0.000008 -0.000029
                                 0.000067 -0.000212  0.000517 -0.001321 -0.004295  0.029754  0.026155 -0.131814 -0.162826 -0.091363
                                 0.217474  0.605439  0.320439  0.008121 -0.002867 -0.063643  0.002327  0.001508 -0.000000 -0.000000
                                -0.000000  0.000000  0.000000  0.000000  0.000000  0.000000 -0.000000  0.000000

   3.5   0    -0.1464   -1.2854 -0.000000  0.000000 -0.000000  0.000000 -0.000000  0.000000 -0.000001  0.000002 -0.000007  0.000023
                                -0.000053  0.000162 -0.000394  0.001008  0.002149 -0.016097 -0.001726  0.134348  0.141504  0.042812
                                -0.170634 -0.761187  0.073629  1.050758 -0.011208  0.030322 -0.065571  0.111805  0.000000  0.000000
                                -0.000000 -0.000000 -0.000000 -0.000000 -0.000000 -0.000000 -0.000000 -0.000000

                                   1 3d1+    1 3d1+    1 3d1+    1 3d1+    1 3d1+    1 3d1+    1 3d1+    1 3d1+    1 3d1+    1 3d1+ 
                                   1 3d1+    1 3d1+    1 3d1+    1 3d1+    1 3d1+    1 3d1+    1 3d1+    1 3d1+    1 3d1+    1 3d1+ 
                                   1 5g1+    1 5g3+    1 5g1+    1 5g3+    1 5g1+    1 5g3+ 

   1.6   0    -0.3063   -3.4454  0.000000 -0.000000  0.000002 -0.000001  0.000037  0.000005  0.000348  0.000283 -0.002863 -0.000425
                                 0.034976  0.175711  0.352294  0.390781  0.163736  0.000954 -0.050618 -0.040360  0.245147  0.001347
                                 0.000000  0.000000  0.000000  0.000000 -0.000000  0.000000

   2.6   0    -0.1559   -1.5766 -0.000000  0.000000 -0.000002  0.000005 -0.000035  0.000047 -0.000321  0.000197  0.000666  0.002547
                                -0.030764 -0.163602 -0.194266 -0.195621  0.471615  0.640691  0.069144  0.070133 -0.146706  0.015243
                                 0.000000 -0.000000 -0.000000 -0.000000 -0.000000 -0.000000

                                   1 3d1-    1 3d1-    1 3d1-    1 3d1-    1 3d1-    1 3d1-    1 3d1-    1 3d1-    1 3d1-    1 3d1- 
                                   1 3d1-    1 3d1-    1 3d1-    1 3d1-    1 3d1-    1 3d1-    1 3d1-    1 3d1-    1 3d1-    1 3d1- 
                                   1 5g1-    1 5g3-    1 5g1-    1 5g3-    1 5g1-    1 5g3- 

   1.7   0    -0.3063   -3.4454  0.000000 -0.000000  0.000002 -0.000001  0.000037  0.000005  0.000348  0.000283 -0.002863 -0.000425
                                 0.034976  0.175711  0.352294  0.390781  0.163736  0.000954 -0.050618 -0.040360  0.245147  0.001347
                                 0.000000  0.000000  0.000000  0.000000 -0.000000  0.000000

   2.7   0    -0.1559   -1.5766 -0.000000  0.000000 -0.000002  0.000005 -0.000035  0.000047 -0.000321  0.000197  0.000666  0.002547
                                -0.030764 -0.163602 -0.194266 -0.195621  0.471615  0.640691  0.069144  0.070133 -0.146706  0.015243
                                 0.000000  0.000000 -0.000000 -0.000000 -0.000000  0.000000

                                   1 4f2-    1 4f2-    1 4f2-    1 4f2-    1 4f2- 

   1.8   0    -0.1130   -1.4696 -0.017147  0.064191  0.007824  0.059922  0.948201

   2.8   0     0.0757   -1.6257  0.152934  1.320434  0.008931 -0.142269 -0.905474

 HOMO      1.2    -1.579395 =     -42.9775eV
 LUMO      2.1    -0.382941 =     -10.4204eV
 LUMO-HOMO         1.196453 =      32.5572eV


 **********************************************************************************************************************************
 DATASETS  * FILE   NREC   LENGTH (MB)   RECORD NAMES
              1      20       27.94       500      610      700      900      950      970     1000      129      960     1100   
                                          VAR    BASINP    GEOM    SYMINP    ZMAT    AOBASIS   BASIS     P2S    ABASIS      S 
                                         1400     1410     1420     1200     1210     1080     1600     1650     1700     1380   
                                           T        V       ECP      H0       H01     AOSYM     SMH    MOLCAS    OPER     JKOP   

              2      13       27.13       200      700     1000      520     2100     4202     5202     2102     5202(1)  2104   
                                        OPTIONS   GEOM     BASIS   MCVARS     RHF      RHF     MCSCF     RHF     MCSCF     RHF  
                                         2105     2107     2108   
                                          RHF      RHF      RHF  

 PROGRAMS   *        TOTAL       RHF  RCCSD(T)       RHF     MULTI       POP       RHF  RCCSD(T)       RHF  RCCSD(T)       RHF
 CPU TIMES  *       109.34      0.74      5.39      0.08      0.95      0.00      1.95      5.57      0.97      7.31      0.10
 REAL TIME  *       146.47 SEC
 DISK USED  *         2.06 GB      
 SF USED    *       454.68 MB      
 GA USED    *         0.00 MB       (max)       0.00 MB       (current)
 **********************************************************************************************************************************
 SETTING SCF(6)         =       -29.78289866  AU                              
 SETTING _CC_NORM_MAX   =         2.00000000                                  


 PROGRAM * CCSD (Restricted open-shell coupled cluster)     Authors: C. Hampel, H.-J. Werner, 1991, M. Deegan, P.J. Knowles, 1992


 Convergence thresholds:  THRVAR = 1.00D-08  THRDEN = 1.00D-06

 CCSD(T)     terms to be evaluated (factor= 1.000)


 Number of closed-shell orbitals:   4 (   1   1   1   0   1   0   0   0 )
 Number of external orbitals:     278 (  84  37  37  26  37  26  26   5 )

 Memory could be reduced to 31.26 Mwords without degradation in triples

 Number of N-1 electron functions:               8
 Number of N-2 electron functions:              28
 Number of singly external CSFs:               390
 Number of doubly external CSFs:            225232
 Total number of CSFs:                      225622

 Molecular orbitals read from record     2108.2  Type=RHF/CANONICAL (state 1.1)

 Integral transformation finished. Total CPU:   0.49 sec, npass=  1  Memory used:   3.85 MW

 Starting RMP2 calculation

 Wavefunction is spin-projected

 ITER.      SQ.NORM     CORR.ENERGY   TOTAL ENERGY   ENERGY CHANGE        DEN1      VAR(S)    VAR(P)  DIIS     TIME
   1      1.05197582    -0.21654678   -29.99944544    -0.21654678    -0.00048819  0.10D-16  0.14D-03  1  1     0.52
   2      1.05228783    -0.21706202   -29.99996068    -0.00051524    -0.00000012  0.14D-19  0.34D-07  2  2     0.53
   3      1.05229062    -0.21706459   -29.99996325    -0.00000256    -0.00000000  0.39D-22  0.77D-11  3  3     0.54
   4      1.05229063    -0.21706459   -29.99996325    -0.00000000    -0.00000000  0.14D-24  0.22D-14  4  4     0.55

 Norm of t1 vector:      0.00000005      S-energy:    -0.00000000      T1 diagnostic:  0.00000001
 Norm of t2 vector:      0.22867145      P-energy:    -0.21706459
                                         Alpha-Beta:  -0.16651564
                                         Alpha-Alpha: -0.02527447
                                         Beta-Beta:   -0.02527447

 Spin contamination <S**2-Sz**2-Sz>     0.00000000
  Reference energy                    -29.782898660879
  RHF-RMP2 correlation energy          -0.217064586868
 !RHF-RMP2 energy                     -29.999963247747
 (NB above energy spin projected)

 Starting RCCSD calculation

 ITER.      SQ.NORM     CORR.ENERGY   TOTAL ENERGY   ENERGY CHANGE        DEN1      VAR(S)    VAR(P)  DIIS     TIME
   1      1.05748790    -0.22815668   -30.01105534    -0.22815668    -0.00413420  0.48D-04  0.84D-03  1  1     0.81
   2      1.06016713    -0.23266580   -30.01556446    -0.00450913    -0.00005572  0.14D-06  0.13D-04  2  2     1.05
   3      1.06036769    -0.23286803   -30.01576669    -0.00020222    -0.00000167  0.31D-08  0.41D-06  3  3     1.31
   4      1.06039967    -0.23289211   -30.01579077    -0.00002408    -0.00000005  0.23D-09  0.13D-07  4  4     1.56
   5      1.06040371    -0.23289475   -30.01579341    -0.00000264    -0.00000000  0.18D-11  0.19D-09  5  5     1.83
   6      1.06040364    -0.23289451   -30.01579317     0.00000024    -0.00000000  0.15D-11  0.26D-11  6  6     2.11

 Norm of t1 vector:      0.00817260      S-energy:     0.00000000      T1 diagnostic:  0.00204315
                                                                       D1 diagnostic:  0.00388384
 Norm of t2 vector:      0.24563560      P-energy:    -0.23289451
                                         Alpha-Beta:  -0.18382790
                                         Alpha-Alpha: -0.02453330
                                         Beta-Beta:   -0.02453330

 Spin contamination <S**2-Sz**2-Sz>     0.00000000

 Memory could be reduced to 30.82 Mwords without degradation in triples
 

  Correlated core orbitals:             1.1       1.2       1.3       1.5
  Orbital energies:                    -2.4577   -1.5794   -1.5794   -1.5794
 
  RCCSD core-core energy               -0.232894510114
 

 RESULTS
 =======

  Reference energy                    -29.782898660879
  RCCSD singles energy                  0.000000000177
  RCCSD pair energy                    -0.232894510291
  RCCSD correlation energy             -0.232894510114
  Triples (T) contribution             -0.006396927826
  Total correlation energy             -0.239291437941
 
  RHF-RCCSD energy                    -30.015793170993
  RHF-RCCSD[T] energy                 -30.022202924136
  RHF-RCCSD-T energy                  -30.022191517149
 !RHF-RCCSD(T) energy                 -30.022190098819

 Program statistics:

 Available memory in ccsd:               511999732
 Min. memory needed in ccsd:                954095
 Max. memory used in ccsd:                 1190701
 Max. memory used in cckext:               1102575 ( 6 integral passes)
 Max. memory used in cckint:               3847571 ( 1 integral passes)



 **********************************************************************************************************************************
 DATASETS  * FILE   NREC   LENGTH (MB)   RECORD NAMES
              1      20       27.94       500      610      700      900      950      970     1000      129      960     1100   
                                          VAR    BASINP    GEOM    SYMINP    ZMAT    AOBASIS   BASIS     P2S    ABASIS      S 
                                         1400     1410     1420     1200     1210     1080     1600     1650     1700     1380   
                                           T        V       ECP      H0       H01     AOSYM     SMH    MOLCAS    OPER     JKOP   

              2      13       27.13       200      700     1000      520     2100     4202     5202     2102     5202(1)  2104   
                                        OPTIONS   GEOM     BASIS   MCVARS     RHF      RHF     MCSCF     RHF     MCSCF     RHF  
                                         2105     2107     2108   
                                          RHF      RHF      RHF  

 PROGRAMS   *        TOTAL  RCCSD(T)       RHF  RCCSD(T)       RHF     MULTI       POP       RHF  RCCSD(T)       RHF  RCCSD(T)
 CPU TIMES  *       113.39      4.04      0.74      5.39      0.08      0.95      0.00      1.95      5.57      0.97      7.31
 REAL TIME  *       153.24 SEC
 DISK USED  *         2.06 GB      
 SF USED    *       454.68 MB      
 GA USED    *         0.00 MB       (max)       0.00 MB       (current)
 **********************************************************************************************************************************
 SETTING CCSD(6)        =       -30.02219010  AU                              
 Output type csv         
                                                                                                                                                                                                                                                                

       SCF,CCSD
   -30.34124668,   -30.63573779
   -30.30291304,   -30.56877794
   -30.27107565,   -30.54988841
   -30.16661600,   -30.42681844
   -30.09387281,   -30.35611174
   -29.78289866,   -30.02219010
                                                  

 RCCSD(T)/USERDEF energy=    -30.022190098819

        RCCSD(T)        RHF-SCF         RCCSD(T)        RHF-SCF         MULTI           RHF-SCF         RCCSD(T)        RHF-SCF 
    -30.02219010    -29.78289866    -30.35611174    -30.09387281    -30.09387281    -29.87743383    -30.42681844    -30.16661600
 **********************************************************************************************************************************
 Molpro calculation terminated
 Variable memory released
