<?xml version="1.0"?>
<molpro xmlns="http://www.molpro.net/schema/molpro-output"
  xmlns:xsd="http://www.w3.org/1999/XMLSchema"
  xmlns:cml="http://www.xml-cml.org/schema"
  xmlns:stm="http://www.xml-cml.org/schema"
  xmlns:xhtml="http://www.w3.org/1999/xhtml">
 <!--

 Nodes     nprocs
 nid01760    15
 Number of processes for MPI-2 version of Molpro:   nprocs(total)=   16   nprocs(compute)=   15   nprocs(helper)=    1

 Using customized tuning parameters: mindgm=7; mindgv=16; mindgc=1; mindgr=1; noblas=0; minvec=7
 default implementation of scratch files=sf

 --><job>
  <!--

 Variables initialized (889), CPU time= 0.02 sec
 Commands  initialized (702), CPU time= 0.01 sec, 572 directives.
 Default parameters read. Elapsed time= 0.16 sec

 Checking input...
 Passed
1


                                         ***  PROGRAM SYSTEM MOLPRO  ***
                                       Copyright, TTI GmbH Stuttgart, 2015
                                    Version 2015.1 linked Dec 29 2018 15:55:43


 **********************************************************************************************************************************
 LABEL *   Ag
  64 bit mpp version                                                                     DATE: 24-Dec-21          TIME: 14:00:05
 **********************************************************************************************************************************

 SHA1:             19cd028119e0e09f93f0674bd8af7968d9b3eff6
 **********************************************************************************************************************************
  -->
  <!--

 THRESHOLDS:

 ZERO    =  1.00D-12  ONEINT  =  1.00D-12  TWOINT  =  1.00D-12  PREFAC  =  1.00D-14  LOCALI  =  1.00D-09  EORDER  =  1.00D-04
 ENERGY  =  0.00D+00  ETEST   =  0.00D+00  EDENS   =  0.00D+00  THRDEDEF=  1.00D-06  GRADIENT=  1.00D-02  STEP    =  1.00D-03
 ORBITAL =  1.00D-05  CIVEC   =  1.00D-05  COEFF   =  1.00D-04  PRINTCI =  5.00D-02  PUNCHCI =  9.90D+01  OPTGRAD =  3.00D-04
 OPTENERG=  1.00D-06  OPTSTEP =  3.00D-04  THRGRAD =  1.00D-10  COMPRESS=  1.00D-11  VARMIN  =  1.00D-07  VARMAX  =  1.00D-03
 THRDOUB =  0.00D+00  THRDIV  =  1.00D-05  THRRED  =  1.00D-07  THRPSP  =  1.00D+00  THRDC   =  1.00D-10  THRCS   =  1.00D-10
 THRNRM  =  1.00D-08  THREQ   =  0.00D+00  THRDE   =  1.00D+00  THRREF  =  1.00D-05  SPARFAC =  1.00D+00  THRDLP  =  1.00D-07
 THRDIA  =  1.00D-10  THRDLS  =  1.00D-07  THRGPS  =  0.00D+00  THRKEX  =  0.00D+00  THRDIS  =  2.00D-01  THRVAR  =  1.00D-10
 THRLOC  =  1.00D-06  THRGAP  =  1.00D-06  THRLOCT = -1.00D+00  THRGAPT = -1.00D+00  THRORB  =  1.00D-06  THRMLTP =  0.00D+00
 THRCPQCI=  1.00D-10  KEXTA   =  0.00D+00  THRCOARS=  0.00D+00  SYMTOL  =  1.00D-06  GRADTOL =  1.00D-06  THROVL  =  1.00D-08
 THRORTH =  1.00D-08  GRID    =  1.00D-06  GRIDMAX =  1.00D-03  DTMAX   =  0.00D+00  THROCCDE=  1.00D-01  THROCCDE=  1.00D-01



 ZUNIT=ANG


Geometry recognized as XYZ

 SETTING S_PAR(1)       =         2.35872600
 SETTING S_PAR(2)       =         1.60108700
 SETTING P_PAR(1)       =         3.21655400
 SETTING P_PAR(2)       =         2.31624200
 SETTING D_PAR(1)       =         5.06059700
 SETTING D_PAR(2)       =         2.10239900
 SETTING F_PAR          =         6.01747600
 SETTING G_PAR          =         3.23563000
 SETTING H_PAR          =         2.29138200

 Variable memory set to  512000000 words,  buffer space   230000 words

  --><jobstep command="MINIMIZE" commandset="MINIMIZE">
   <!--


 PROGRAM * MINIMIZE (General minimization)     Authors: H.-J. Werner, P.J. Knowles, K.A. Peterson

 Minimize EVAL with respect to:        S_PAR(1)  S_PAR(2)  P_PAR(1)  P_PAR(2)  D_PAR(1)
                                       D_PAR(2)  F_PAR(1)  G_PAR(1)  H_PAR(1)
 Method BFGS will be used
 Variables are optimized in the space of (x/x0)


 Minimization using procedure=OPT_BASIS

 Running procedure=OPT_BASIS
 SETTING BASIS          =    USERDEF
   --><jobstep command="RHF-SCF" commandset="SCFPRO">
    <!--


 Current variables in basis input:

 Set= 1  S_PAR(1)            =       2.35872600
 Set= 1  S_PAR(2)            =       1.60108700
 Set= 1  P_PAR(1)            =       3.21655400
 Set= 1  P_PAR(2)            =       2.31624200
 Set= 1  D_PAR(1)            =       5.06059700
 Set= 1  D_PAR(2)            =       2.10239900
 Set= 1  F_PAR(1)            =       6.01747600
 Set= 1  G_PAR(1)            =       3.23563000
 Set= 1  H_PAR(1)            =       2.29138200

 Recomputing integrals since basis changed


 Using spherical harmonics



 PROGRAM * SEWARD (Integral evaluation for generally contracted gaussian basis sets)     Author: Roland Lindh, 1990

 Geometry written to block  1 of record 700

 Orientation using atomic masses
 Molecule type: Atom
 Symmetry elements: X,Y,Z
 Rotational constants:       0.0000000      0.0000000      0.0000000 GHz  (calculated with average atomic masses)

 Point group  D2h


    --><cml:molecule>
     <cml:symmetry pointGroup="D2h"/>
     <cml:atomArray>
      <cml:atom id="a1" elementType="Ag" x3="0.0" y3="0.0" z3="0.0"/>
     </cml:atomArray>
     <cml:bondArray>
     </cml:bondArray>
    </cml:molecule><!--

 ATOMIC COORDINATES

 NR  ATOM    CHARGE       X              Y              Z

   1  AG     19.00    0.000000000    0.000000000    0.000000000


          AG  CORE POTENTIAL

          f POTENTIAL

 POWERS             1              3              2              2
 EXPONENTIALS   11.11700       11.30707       10.88747       6.050896
 COEFFICIENTS   19.00000       211.2229      -111.3857      -10.04923

          s - f POTENTIAL

 POWERS             2              2
 EXPONENTIALS   12.57068       7.075228
 COEFFICIENTS   281.0044       40.24656

          p - f POTENTIAL

 POWERS             2              2
 EXPONENTIALS   11.40284       6.504915
 COEFFICIENTS   210.9924       30.82987

          d - f POTENTIAL

 POWERS             2              2
 EXPONENTIALS   10.79268       4.485396
 COEFFICIENTS   101.0336       14.81364


 BASIS DATA

   Nr Sym  Nuc  Type         Exponents   Contraction coefficients

    1.1 Ag    1  1s         252.240986     0.000187   -0.000008   -0.000099   -0.001900    0.008567    0.000000
    2.1 Ag                  120.263143    -0.001203    0.000101    0.000652    0.009674   -0.042968    0.000000
    3.1 Ag                   57.338912     0.006572   -0.000983   -0.003771   -0.032370    0.136555    0.000000
    4.1 Ag                   27.337975    -0.049135    0.010502    0.030950    0.116305   -0.411745    0.000000
    5.1 Ag                   13.034166     0.324368   -0.079895   -0.221657   -0.510709    1.449354    0.000000
    6.1 Ag                    6.214413    -0.830173    0.222996    0.613121    1.359180   -4.244024    0.000000
                              2.962900     0.040602   -0.020638    0.057692   -0.446341    6.431380    0.000000
                              1.412648     0.867596   -0.290413   -1.459411   -3.589505   -3.001191    0.000000
                              0.673520     0.402042   -0.217113   -0.130031    4.806964   -3.774340    0.000000
                              0.321120     0.041210   -0.060146    1.562245   -0.846586    7.664217    0.000000
                              0.153103    -0.001441    0.281317    0.425393   -2.019864   -5.681745    0.000000
                              0.072996     0.001527    0.481834   -0.568215    0.548278    1.176658    0.000000
                              0.034803    -0.000235    0.420529   -0.494792    0.652319    0.575735    1.000000
    7.1 Ag    1  1s           2.358726     1.000000
    8.1 Ag    1  1s           1.601087     1.000000
    9.1 Ag    1  3d0         52.271002    -0.000103
                             28.989500     0.000467
                             16.077578     0.002803
                              8.916626    -0.039328
                              4.945161     0.031263
                              2.742587     0.184471
                              1.521039     0.291465
                              0.843568     0.289956
                              0.467843     0.231088
                              0.259466     0.142433
                              0.143900     0.065674
                              0.079807     0.016134
                              0.044261     0.001687
   10.1 Ag    1  3d2+        52.271002    -0.000103
                             28.989500     0.000467
                             16.077578     0.002803
                              8.916626    -0.039328
                              4.945161     0.031263
                              2.742587     0.184471
                              1.521039     0.291465
                              0.843568     0.289956
                              0.467843     0.231088
                              0.259466     0.142433
                              0.143900     0.065674
                              0.079807     0.016134
                              0.044261     0.001687
   11.1 Ag    1  3d0         52.271002     0.000196
                             28.989500    -0.000963
                             16.077578    -0.002392
                              8.916626     0.050899
                              4.945161    -0.042644
                              2.742587    -0.313089
                              1.521039    -0.428387
                              0.843568    -0.080810
                              0.467843     0.315166
                              0.259466     0.392427
                              0.143900     0.236410
                              0.079807     0.074921
                              0.044261     0.008955
   12.1 Ag    1  3d2+        52.271002     0.000196
                             28.989500    -0.000963
                             16.077578    -0.002392
                              8.916626     0.050899
                              4.945161    -0.042644
                              2.742587    -0.313089
                              1.521039    -0.428387
                              0.843568    -0.080810
                              0.467843     0.315166
                              0.259466     0.392427
                              0.143900     0.236410
                              0.079807     0.074921
                              0.044261     0.008955
   13.1 Ag    1  3d0         52.271002     0.000287
                             28.989500    -0.001388
                             16.077578    -0.003056
                              8.916626     0.069653
                              4.945161    -0.032850
                              2.742587    -0.711418
                              1.521039    -0.262635
                              0.843568     0.863081
                              0.467843     0.459855
                              0.259466    -0.311796
                              0.143900    -0.460355
                              0.079807    -0.179197
                              0.044261    -0.024419
   14.1 Ag    1  3d2+        52.271002     0.000287
                             28.989500    -0.001388
                             16.077578    -0.003056
                              8.916626     0.069653
                              4.945161    -0.032850
                              2.742587    -0.711418
                              1.521039    -0.262635
                              0.843568     0.863081
                              0.467843     0.459855
                              0.259466    -0.311796
                              0.143900    -0.460355
                              0.079807    -0.179197
                              0.044261    -0.024419
   15.1 Ag    1  3d0         52.271002    -0.001403
                             28.989500     0.006606
                             16.077578    -0.031127
                              8.916626     0.183242
                              4.945161    -0.219705
                              2.742587    -1.433050
                              1.521039     1.507546
                              0.843568     0.764291
                              0.467843    -1.346791
                              0.259466    -0.281207
                              0.143900     0.532740
                              0.079807     0.321797
                              0.044261     0.038935
   16.1 Ag    1  3d2+        52.271002    -0.001403
                             28.989500     0.006606
                             16.077578    -0.031127
                              8.916626     0.183242
                              4.945161    -0.219705
                              2.742587    -1.433050
                              1.521039     1.507546
                              0.843568     0.764291
                              0.467843    -1.346791
                              0.259466    -0.281207
                              0.143900     0.532740
                              0.079807     0.321797
                              0.044261     0.038935
   17.1 Ag    1  3d0         52.271002     0.000000
                             28.989500     0.000000
                             16.077578     0.000000
                              8.916626     0.000000
                              4.945161     0.000000
                              2.742587     0.000000
                              1.521039     0.000000
                              0.843568     0.000000
                              0.467843     0.000000
                              0.259466     0.000000
                              0.143900     0.000000
                              0.079807     0.000000
                              0.044261     1.000000
   18.1 Ag    1  3d2+        52.271002     0.000000
                             28.989500     0.000000
                             16.077578     0.000000
                              8.916626     0.000000
                              4.945161     0.000000
                              2.742587     0.000000
                              1.521039     0.000000
                              0.843568     0.000000
                              0.467843     0.000000
                              0.259466     0.000000
                              0.143900     0.000000
                              0.079807     0.000000
                              0.044261     1.000000
   19.1 Ag    1  3d0          5.060597     1.000000
   20.1 Ag    1  3d2+         5.060597     1.000000
   21.1 Ag    1  3d0          2.102399     1.000000
   22.1 Ag    1  3d2+         2.102399     1.000000
   23.1 Ag    1  5g0          3.031402     1.000000
   24.1 Ag    1  5g4+         3.031402     1.000000
   25.1 Ag    1  5g2+         3.031402     1.000000
   26.1 Ag    1  5g0          1.148461     1.000000
   27.1 Ag    1  5g4+         1.148461     1.000000
   28.1 Ag    1  5g2+         1.148461     1.000000
   29.1 Ag    1  5g0          3.235630     1.000000
   30.1 Ag    1  5g4+         3.235630     1.000000
   31.1 Ag    1  5g2+         3.235630     1.000000
    1.2 B3u   1  2px         50.711510     0.000473   -0.000057   -0.000068   -0.003119   -0.021677    0.000000
    2.2 B3u                  26.995067    -0.007776    0.003143    0.004824    0.021691    0.119340    0.000000
    3.2 B3u                  14.370182     0.079067   -0.040893   -0.064390   -0.130453   -0.488914    0.000000
    4.2 B3u                   7.649625    -0.276376    0.155441    0.243719    0.395950    1.496978    0.000000
    5.2 B3u                   4.072096    -0.002600    0.005696    0.085308    0.275943   -1.655266    0.000000
    6.2 B3u                   2.167683     0.425926   -0.317361   -0.884021   -2.505867   -2.075933    0.000000
                              1.153915     0.460864   -0.378459   -0.394819    1.926260    6.000732    0.000000
                              0.614259     0.236555    0.033325    1.072408    1.292839   -5.276038    0.000000
                              0.326986     0.047504    0.456558    0.628411   -1.827177    1.115333    0.000000
                              0.174063     0.007012    0.469051   -0.479278   -0.371120    1.348328    0.000000
                              0.092658    -0.000383    0.186370   -0.548380    0.698860   -0.307305    0.000000
                              0.049325     0.000641    0.030594   -0.143865    0.354861   -0.679120    0.000000
                              0.026257    -0.000147    0.000776   -0.006800    0.010663    0.004214    1.000000
    7.2 B3u   1  2px          3.216554     1.000000
    8.2 B3u   1  2px          2.316242     1.000000
    9.2 B3u   1  4f1+         3.487338     1.000000
   10.2 B3u   1  4f3+         3.487338     1.000000
   11.2 B3u   1  4f1+         1.317036     1.000000
   12.2 B3u   1  4f3+         1.317036     1.000000
   13.2 B3u   1  4f1+         0.497395     1.000000
   14.2 B3u   1  4f3+         0.497395     1.000000
   15.2 B3u   1  4f1+         6.017476     1.000000
   16.2 B3u   1  4f3+         6.017476     1.000000
   17.2 B3u   1  6h1+         2.469857     1.000000
   18.2 B3u   1  6h3+         2.469857     1.000000
   19.2 B3u   1  6h5+         2.469857     1.000000
   20.2 B3u   1  6h1+         2.291382     1.000000
   21.2 B3u   1  6h3+         2.291382     1.000000
   22.2 B3u   1  6h5+         2.291382     1.000000
    1.3 B2u   1  2py         50.711510     0.000473   -0.000057   -0.000068   -0.003119   -0.021677    0.000000
    2.3 B2u                  26.995067    -0.007776    0.003143    0.004824    0.021691    0.119340    0.000000
    3.3 B2u                  14.370182     0.079067   -0.040893   -0.064390   -0.130453   -0.488914    0.000000
    4.3 B2u                   7.649625    -0.276376    0.155441    0.243719    0.395950    1.496978    0.000000
    5.3 B2u                   4.072096    -0.002600    0.005696    0.085308    0.275943   -1.655266    0.000000
    6.3 B2u                   2.167683     0.425926   -0.317361   -0.884021   -2.505867   -2.075933    0.000000
                              1.153915     0.460864   -0.378459   -0.394819    1.926260    6.000732    0.000000
                              0.614259     0.236555    0.033325    1.072408    1.292839   -5.276038    0.000000
                              0.326986     0.047504    0.456558    0.628411   -1.827177    1.115333    0.000000
                              0.174063     0.007012    0.469051   -0.479278   -0.371120    1.348328    0.000000
                              0.092658    -0.000383    0.186370   -0.548380    0.698860   -0.307305    0.000000
                              0.049325     0.000641    0.030594   -0.143865    0.354861   -0.679120    0.000000
                              0.026257    -0.000147    0.000776   -0.006800    0.010663    0.004214    1.000000
    7.3 B2u   1  2py          3.216554     1.000000
    8.3 B2u   1  2py          2.316242     1.000000
    9.3 B2u   1  4f1-         3.487338     1.000000
   10.3 B2u   1  4f3-         3.487338     1.000000
   11.3 B2u   1  4f1-         1.317036     1.000000
   12.3 B2u   1  4f3-         1.317036     1.000000
   13.3 B2u   1  4f1-         0.497395     1.000000
   14.3 B2u   1  4f3-         0.497395     1.000000
   15.3 B2u   1  4f1-         6.017476     1.000000
   16.3 B2u   1  4f3-         6.017476     1.000000
   17.3 B2u   1  6h1-         2.469857     1.000000
   18.3 B2u   1  6h3-         2.469857     1.000000
   19.3 B2u   1  6h5-         2.469857     1.000000
   20.3 B2u   1  6h1-         2.291382     1.000000
   21.3 B2u   1  6h3-         2.291382     1.000000
   22.3 B2u   1  6h5-         2.291382     1.000000
    1.4 B1g   1  3d2-        52.271002    -0.000103    0.000196    0.000287   -0.001403    0.000000
    2.4 B1g                  28.989500     0.000467   -0.000963   -0.001388    0.006606    0.000000
    3.4 B1g                  16.077578     0.002803   -0.002392   -0.003056   -0.031127    0.000000
    4.4 B1g                   8.916626    -0.039328    0.050899    0.069653    0.183242    0.000000
    5.4 B1g                   4.945161     0.031263   -0.042644   -0.032850   -0.219705    0.000000
                              2.742587     0.184471   -0.313089   -0.711418   -1.433050    0.000000
                              1.521039     0.291465   -0.428387   -0.262635    1.507546    0.000000
                              0.843568     0.289956   -0.080810    0.863081    0.764291    0.000000
                              0.467843     0.231088    0.315166    0.459855   -1.346791    0.000000
                              0.259466     0.142433    0.392427   -0.311796   -0.281207    0.000000
                              0.143900     0.065674    0.236410   -0.460355    0.532740    0.000000
                              0.079807     0.016134    0.074921   -0.179197    0.321797    0.000000
                              0.044261     0.001687    0.008955   -0.024419    0.038935    1.000000
    6.4 B1g   1  3d2-         5.060597     1.000000
    7.4 B1g   1  3d2-         2.102399     1.000000
    8.4 B1g   1  5g2-         3.031402     1.000000
    9.4 B1g   1  5g4-         3.031402     1.000000
   10.4 B1g   1  5g2-         1.148461     1.000000
   11.4 B1g   1  5g4-         1.148461     1.000000
   12.4 B1g   1  5g2-         3.235630     1.000000
   13.4 B1g   1  5g4-         3.235630     1.000000
    1.5 B1u   1  2pz         50.711510     0.000473   -0.000057   -0.000068   -0.003119   -0.021677    0.000000
    2.5 B1u                  26.995067    -0.007776    0.003143    0.004824    0.021691    0.119340    0.000000
    3.5 B1u                  14.370182     0.079067   -0.040893   -0.064390   -0.130453   -0.488914    0.000000
    4.5 B1u                   7.649625    -0.276376    0.155441    0.243719    0.395950    1.496978    0.000000
    5.5 B1u                   4.072096    -0.002600    0.005696    0.085308    0.275943   -1.655266    0.000000
    6.5 B1u                   2.167683     0.425926   -0.317361   -0.884021   -2.505867   -2.075933    0.000000
                              1.153915     0.460864   -0.378459   -0.394819    1.926260    6.000732    0.000000
                              0.614259     0.236555    0.033325    1.072408    1.292839   -5.276038    0.000000
                              0.326986     0.047504    0.456558    0.628411   -1.827177    1.115333    0.000000
                              0.174063     0.007012    0.469051   -0.479278   -0.371120    1.348328    0.000000
                              0.092658    -0.000383    0.186370   -0.548380    0.698860   -0.307305    0.000000
                              0.049325     0.000641    0.030594   -0.143865    0.354861   -0.679120    0.000000
                              0.026257    -0.000147    0.000776   -0.006800    0.010663    0.004214    1.000000
    7.5 B1u   1  2pz          3.216554     1.000000
    8.5 B1u   1  2pz          2.316242     1.000000
    9.5 B1u   1  4f0          3.487338     1.000000
   10.5 B1u   1  4f2+         3.487338     1.000000
   11.5 B1u   1  4f0          1.317036     1.000000
   12.5 B1u   1  4f2+         1.317036     1.000000
   13.5 B1u   1  4f0          0.497395     1.000000
   14.5 B1u   1  4f2+         0.497395     1.000000
   15.5 B1u   1  4f0          6.017476     1.000000
   16.5 B1u   1  4f2+         6.017476     1.000000
   17.5 B1u   1  6h2+         2.469857     1.000000
   18.5 B1u   1  6h4+         2.469857     1.000000
   19.5 B1u   1  6h0          2.469857     1.000000
   20.5 B1u   1  6h2+         2.291382     1.000000
   21.5 B1u   1  6h4+         2.291382     1.000000
   22.5 B1u   1  6h0          2.291382     1.000000
    1.6 B2g   1  3d1+        52.271002    -0.000103    0.000196    0.000287   -0.001403    0.000000
    2.6 B2g                  28.989500     0.000467   -0.000963   -0.001388    0.006606    0.000000
    3.6 B2g                  16.077578     0.002803   -0.002392   -0.003056   -0.031127    0.000000
    4.6 B2g                   8.916626    -0.039328    0.050899    0.069653    0.183242    0.000000
    5.6 B2g                   4.945161     0.031263   -0.042644   -0.032850   -0.219705    0.000000
                              2.742587     0.184471   -0.313089   -0.711418   -1.433050    0.000000
                              1.521039     0.291465   -0.428387   -0.262635    1.507546    0.000000
                              0.843568     0.289956   -0.080810    0.863081    0.764291    0.000000
                              0.467843     0.231088    0.315166    0.459855   -1.346791    0.000000
                              0.259466     0.142433    0.392427   -0.311796   -0.281207    0.000000
                              0.143900     0.065674    0.236410   -0.460355    0.532740    0.000000
                              0.079807     0.016134    0.074921   -0.179197    0.321797    0.000000
                              0.044261     0.001687    0.008955   -0.024419    0.038935    1.000000
    6.6 B2g   1  3d1+         5.060597     1.000000
    7.6 B2g   1  3d1+         2.102399     1.000000
    8.6 B2g   1  5g1+         3.031402     1.000000
    9.6 B2g   1  5g3+         3.031402     1.000000
