
 Primary working directories    : /global/cscratch1/sd/bkincaid
 Secondary working directories  : /global/cscratch1/sd/bkincaid
 Wavefunction directory         : /global/homes/b/bkincaid/wfu/
 Main file repository           : /global/cscratch1/sd/bkincaid/

 SHA1      : 19cd028119e0e09f93f0674bd8af7968d9b3eff6
 NAME      : 2015.1.36
 ARCHNAME  : linux/x86_64
 FC        : /opt/cray/pe/craype/2.5.14/bin/ftn
 BLASLIB   : -L/opt/intel/compilers_and_libraries_2018.1.163/linux/mkl/lib/intel64 -Wl,-_start-group -lmkl_intel_ilp64 -lmkl_intel_thread -lmkl_core -Wl,-_end-group -liomp5
 id        : lbl

 Nodes     nprocs
 nid00812    11
 Number of processes for MPI-2 version of Molpro:   nprocs(total)=   12   nprocs(compute)=   11   nprocs(helper)=    1

 Using customized tuning parameters: mindgm=7; mindgv=16; mindgc=1; mindgr=1; noblas=0; minvec=7
 default implementation of scratch files=sf  

 ***,Calculation for Pt atom, singlet and triplet
 memory,1024,m
 geometry={
 1
 Pt
 Pt  0.0 0.0 0.0
 }
 
 basis={
 Including file /global/u1/b/bkincaid/molpro/Pt/atoms/MWBSTU/basis/ecp
 Including file /global/u1/b/bkincaid/molpro/Pt/atoms/MWBSTU/basis/aug-cc-pwCVTZ.basis
 }
 
 Including file /global/u1/b/bkincaid/molpro/Pt/atoms/MWBSTU/basis/states.proc
 
 do i=1,15
     if (i.eq.1) then
         Idten
     else if (i.eq.2) then
         EAs2d9
     else if (i.eq.3) then
         Is1d9
     else if (i.eq.4) then
         Is2d8
     else if (i.eq.5) then
         IId9
     else if (i.eq.6) then
         IIs1d8
     else if (i.eq.7) then
         IIId8
     else if (i.eq.8) then
         IVd7
     else if (i.eq.9) then
         Vd6
     else if (i.eq.10) then
         VId5
     else if (i.eq.11) then
         XIKr
     else if (i.eq.12) then
         XIVp3
     else if (i.eq.13) then
         XVIIs2
     else if (i.eq.14) then
         Vd5f1
     else if (i.eq.15) then
         Xf1
     endif
     scf(i)=energy
     _CC_NORM_MAX=2.0
    {rccsd(t),maxit=100;core}
     ccsd(i)=energy
 enddo
 
 table,scf,ccsd
 type,csv
 save

 Variables initialized (889), CPU time= 0.00 sec
 Commands  initialized (702), CPU time= 0.01 sec, 572 directives.
 Default parameters read. Elapsed time= 0.20 sec

 Checking input...
 Passed
1


                                         ***  PROGRAM SYSTEM MOLPRO  ***
                                       Copyright, TTI GmbH Stuttgart, 2015
                                    Version 2015.1 linked Dec 29 2018 15:55:43


 **********************************************************************************************************************************
 LABEL *   Calculation for Pt atom, singlet and triplet                                  
  64 bit mpp version                                                                     DATE: 27-Jul-21          TIME: 06:34:36  
 **********************************************************************************************************************************

 SHA1:             19cd028119e0e09f93f0674bd8af7968d9b3eff6
 **********************************************************************************************************************************

Geometry recognized as XYZ


 Variable memory set to 1024000000 words,  buffer space   230000 words

 SETTING BASIS          =    USERDEF

 DO I                   =         1.00000000   

 Running procedure=IDTEN


 Recomputing integrals since basis changed


 Using spherical harmonics



 PROGRAM * SEWARD (Integral evaluation for generally contracted gaussian basis sets)     Author: Roland Lindh, 1990

 Geometry written to block  1 of record 700

 Orientation using atomic masses  
 Molecule type: Atom
 Symmetry elements: X,Y,Z
 Rotational constants:       0.0000000      0.0000000      0.0000000 GHz  (calculated with average atomic masses)

 Point group  D2h 



 ATOMIC COORDINATES

 NR  ATOM    CHARGE       X              Y              Z

   1  PT     18.00    0.000000000    0.000000000    0.000000000

 NUCLEAR CHARGE:                   18
 NUMBER OF PRIMITIVE AOS:         434
 NUMBER OF SYMMETRY AOS:          347
 NUMBER OF CONTRACTIONS:          347   (  78Ag  +  60B3u +  60B2u +  24B1g +  60B1u +  24B2g +  24B3g +  17Au  )
 NUMBER OF CORE ORBITALS:           4   (   1Ag  +   1B3u +   1B2u +   0B1g +   1B1u +   0B2g +   0B3g +   0Au  )
 NUMBER OF VALENCE ORBITALS:        6   (   3Ag  +   0B3u +   0B2u +   1B1g +   0B1u +   1B2g +   1B3g +   0Au  )


 NUCLEAR REPULSION ENERGY    0.00000000

 EXTRA SYMMETRY OF AOS IN SYMMETRY 1:   1 1 1 1 1 1 1 1 1 1   1 1 1 1 1 1 1 1 1 1   1 1 1 1 1 1 1 1 1 1   1 1 1 2 3 2 3 2 3 2
                                        3 2 3 2 3 2 3 2 3 2   3 2 3 2 3 2 3 2 3 2   3 2 3 2 3 2 3 2 3 4   5 6 4 5 6 4 5 6
 EXTRA SYMMETRY OF AOS IN SYMMETRY 2:   1 1 1 1 1 1 1 1 1 1   1 1 1 1 1 1 1 1 1 1   1 1 1 1 1 1 2 3 2 3   2 3 2 3 2 3 2 3 2 3
                                        2 3 2 3 2 3 2 3 2 3   2 3 2 3 2 3 2 3 2 3
 EXTRA SYMMETRY OF AOS IN SYMMETRY 3:   1 1 1 1 1 1 1 1 1 1   1 1 1 1 1 1 1 1 1 1   1 1 1 1 1 1 2 3 2 3   2 3 2 3 2 3 2 3 2 3
                                        2 3 2 3 2 3 2 3 2 3   2 3 2 3 2 3 2 3 2 3
 EXTRA SYMMETRY OF AOS IN SYMMETRY 4:   1 1 1 1 1 1 1 1 1 1   1 1 1 1 1 1 1 1 2 3   2 3 2 3
 EXTRA SYMMETRY OF AOS IN SYMMETRY 5:   1 1 1 1 1 1 1 1 1 1   1 1 1 1 1 1 1 1 1 1   1 1 1 1 1 1 2 3 2 3   2 3 2 3 2 3 2 3 2 3
                                        2 3 2 3 2 3 2 3 2 3   2 3 2 3 2 3 2 3 2 3
 EXTRA SYMMETRY OF AOS IN SYMMETRY 6:   1 1 1 1 1 1 1 1 1 1   1 1 1 1 1 1 1 1 2 3   2 3 2 3
 EXTRA SYMMETRY OF AOS IN SYMMETRY 7:   1 1 1 1 1 1 1 1 1 1   1 1 1 1 1 1 1 1 2 3   2 3 2 3

 Eigenvalues of metric

         1 0.632E-05 0.391E-04 0.662E-04 0.117E-03 0.187E-03 0.332E-03 0.599E-03 0.825E-03
         2 0.139E-04 0.272E-03 0.963E-03 0.191E-02 0.191E-02 0.243E-02 0.243E-02 0.245E-02
         3 0.139E-04 0.272E-03 0.963E-03 0.191E-02 0.191E-02 0.243E-02 0.243E-02 0.245E-02
         4 0.825E-03 0.217E-02 0.713E-02 0.171E-01 0.337E-01 0.649E-01 0.119E+00 0.188E+00
         5 0.139E-04 0.272E-03 0.963E-03 0.191E-02 0.191E-02 0.243E-02 0.243E-02 0.245E-02
         6 0.825E-03 0.217E-02 0.713E-02 0.171E-01 0.337E-01 0.649E-01 0.119E+00 0.188E+00
         7 0.825E-03 0.217E-02 0.713E-02 0.171E-01 0.337E-01 0.649E-01 0.119E+00 0.188E+00
         8 0.191E-02 0.243E-02 0.658E-02 0.118E-01 0.266E-01 0.456E-01 0.920E-01 0.173E+00


 Contracted 2-electron integrals neglected if value below      1.0D-12
 AO integral compression algorithm  1   Integral accuracy      1.0D-12

     1269.826 MB (compressed) written to integral file ( 32.0%)

     Node minimum: 69.730 MB, node maximum: 195.035 MB


 NUMBER OF SORTED TWO-ELECTRON INTEGRALS:   21372670.     BUFFER LENGTH:  32768
 NUMBER OF SEGMENTS:   1  SEGMENT LENGTH:   21372670      RECORD LENGTH: 524288

 Memory used in sort:      21.93 MW

 SORT1 READ   495758857. AND WROTE    12412097. INTEGRALS IN     36 RECORDS. CPU TIME:     9.51 SEC, REAL TIME:     9.90 SEC
 SORT2 READ   135579217. AND WROTE   235142862. INTEGRALS IN   4576 RECORDS. CPU TIME:     0.48 SEC, REAL TIME:     0.75 SEC

 Node minimum:    21275732.  Node maximum:    21480371. integrals

 OPERATOR DM      FOR CENTER  0  COORDINATES:    0.000000    0.000000    0.000000


 **********************************************************************************************************************************
 DATASETS  * FILE   NREC   LENGTH (MB)   RECORD NAMES
              1      19       20.77       500      610      700      900      950      970     1000      129      960     1100   
                                          VAR    BASINP    GEOM    SYMINP    ZMAT    AOBASIS   BASIS     P2S    ABASIS      S 
                                         1400     1410     1420     1200     1210     1080     1600     1650     1700   
                                           T        V       ECP      H0       H01     AOSYM     SMH    MOLCAS    OPER   

 PROGRAMS   *        TOTAL       INT
 CPU TIMES  *        74.92     74.54
 REAL TIME  *        77.66 SEC
 DISK USED  *         2.89 GB      
 GA USED    *         0.00 MB       (max)       0.00 MB       (current)
 **********************************************************************************************************************************


 PROGRAM * RHF-SCF (CLOSED SHELL)       Authors: W. Meyer, H.-J. Werner


 NUMBER OF ELECTRONS:       9+    9-    SPACE SYMMETRY=1    SPIN SYMMETRY: Singlet 
 CONVERGENCE THRESHOLDS:    1.00E-05 (Density)    1.00E-07 (Energy)
 MAX. NUMBER OF ITERATIONS:       60
 INTERPOLATION TYPE:            DIIS
 INTERPOLATION STEPS:              2 (START)      1 (STEP)
 LEVEL SHIFTS:                  0.00 (CLOSED)  0.00 (OPEN) 

 Number of closed-shell orbitals:    9 (   3   1   1   1   1   1   1   0 )


 
 Extra symmetries of mos in symmetry 1:   1   3   2
 Orbital guess generated from atomic densities. Full valence occupancy:    4   1   1   1   1   1   1   0


 Molecular orbital dump at record        4202.2

 ITERATION    DDIFF          GRAD             ENERGY        2-EL.EN.            DIPOLE MOMENTS         DIIS   ORB.
    1      0.000D+00      0.000D+00      -118.22647880    191.813424    0.00000    0.00000    0.00000    0    start
    2      0.000D+00      0.211D-01      -118.26413299    176.625887    0.00000    0.00000    0.00000    1    diag
    3      0.556D-02      0.187D-01      -118.36189360    183.764991    0.00000    0.00000    0.00000    2    diag
    4      0.249D-02      0.224D-03      -118.36191760    183.653119    0.00000    0.00000    0.00000    3    diag
    5      0.865D-04      0.749D-04      -118.36191932    183.678907    0.00000    0.00000    0.00000    4    diag
    6      0.184D-04      0.292D-05      -118.36191934    183.679194    0.00000    0.00000    0.00000    5    diag
    7      0.273D-05      0.613D-06      -118.36191934    183.679038    0.00000    0.00000    0.00000    0    orth

 Final occupancy:   3   1   1   1   1   1   1   0

 !RHF STATE 1.1 Energy               -118.361919343972
 Nuclear energy                         0.00000000
 One-electron energy                 -210.20143841
 Two-electron energy                   91.83951907
 Virial quotient                       -2.87235360
 !RHF STATE 1.1 Dipole moment           0.00000000     0.00000000     0.00000000
 Dipole moment /Debye                   0.00000000     0.00000000     0.00000000

 ELECTRON ORBITALS
 =================


   Orb  Occ    Energy  Couls-En    Coefficients

                                   1 1s      1 1s      1 1s      1 1s      1 1s      1 1s      1 1s      1 1s      1 1s      1 1s   
                                   1 1s      1 1s      1 1s      1 1s      1 1s      1 1s      1 1s      1 1s      1 1s      1 1s   
                                   1 1s      1 1s      1 1s      1 1s      1 1s      1 1s      1 1s      1 1s      1 1s      1 1s   
                                   1 1s      1 1s      1 1s      1 3d0     1 3d2+    1 3d0     1 3d2+    1 3d0     1 3d2+    1 3d0  
                                   1 3d2+    1 3d0     1 3d2+    1 3d0     1 3d2+    1 3d0     1 3d2+    1 3d0     1 3d2+    1 3d0  
                                   1 3d2+    1 3d0     1 3d2+    1 3d0     1 3d2+    1 3d0     1 3d2+    1 3d0     1 3d2+    1 3d0  
                                   1 3d2+    1 3d0     1 3d2+    1 3d0     1 3d2+    1 3d0     1 3d2+    1 3d0     1 3d2+    1 5g0  
                                   1 5g4+    1 5g2+    1 5g0     1 5g4+    1 5g2+    1 5g0     1 5g4+    1 5g2+ 

   1.1   2    -4.3257  -20.2308 -0.000000  0.000000 -0.000000  0.000000 -0.000001  0.000002 -0.000004  0.000008 -0.000018  0.000037
                                -0.000077  0.000170 -0.000395  0.000970 -0.002486  0.006517 -0.016835  0.041033 -0.090678  0.178955
                                -0.312623  0.411214 -0.023018 -0.896691  0.206279  0.778030  0.472900  0.019807  0.023018 -0.021180
                                 0.006588 -0.002341  0.000668 -0.000000  0.000000  0.000000 -0.000000 -0.000000  0.000000  0.000000
                                -0.000000 -0.000000  0.000000  0.000000 -0.000000 -0.000000  0.000000  0.000000 -0.000000 -0.000000
                                 0.000000  0.000000 -0.000000 -0.000000  0.000000  0.000000 -0.000000 -0.000000  0.000000  0.000000
                                -0.000000 -0.000000  0.000000  0.000000 -0.000000 -0.000000 -0.000000  0.000000  0.000000  0.000000
                                 0.000000  0.000000 -0.000000 -0.000000  0.000000  0.000000 -0.000000 -0.000000

   2.1   2    -0.3230  -10.0155  0.000000 -0.000000  0.000000 -0.000000  0.000000 -0.000000  0.000000 -0.000000  0.000000 -0.000000
                                 0.000000 -0.000000  0.000000 -0.000000  0.000000  0.000000 -0.000000  0.000000 -0.000000  0.000000
                                -0.000000  0.000000 -0.000000 -0.000000  0.000000  0.000000  0.000000  0.000000 -0.000000  0.000000
                                -0.000000  0.000000 -0.000000  0.000000  0.000000 -0.000000 -0.000000  0.000001  0.000001 -0.000003
                                -0.000005  0.000009  0.000016 -0.000030 -0.000053  0.000057  0.000102 -0.000158 -0.000283  0.000286
                                 0.000511 -0.005116 -0.009151  0.039949  0.071452 -0.040855 -0.073074 -0.143396 -0.256477 -0.077101
                                -0.137903 -0.156631 -0.280149 -0.137539 -0.246002 -0.065485 -0.117127 -0.001982 -0.003545 -0.000000
                                 0.000000 -0.000000  0.000000 -0.000000 -0.000000 -0.000000 -0.000000  0.000000

   3.1   2    -0.3230  -10.0155  0.000000  0.000000 -0.000000  0.000000 -0.000000  0.000000 -0.000000  0.000000 -0.000000  0.000000
                                -0.000000  0.000000 -0.000000  0.000000 -0.000000  0.000000 -0.000000  0.000000  0.000000 -0.000000
                                 0.000000 -0.000000  0.000000  0.000000 -0.000000 -0.000000 -0.000000 -0.000000  0.000000 -0.000000
                                 0.000000 -0.000000  0.000000 -0.000000  0.000000  0.000000 -0.000000 -0.000001  0.000001  0.000005
                                -0.000003 -0.000016  0.000009  0.000053 -0.000030 -0.000102  0.000057  0.000283 -0.000158 -0.000511
                                 0.000286  0.009151 -0.005116 -0.071452  0.039949  0.073074 -0.040855  0.256477 -0.143396  0.137903
                                -0.077101  0.280149 -0.156631  0.246002 -0.137539  0.117127 -0.065485  0.003545 -0.001982 -0.000000
                                 0.000000 -0.000000  0.000000  0.000000  0.000000 -0.000000 -0.000000  0.000000

   4.1   0    -0.0067   -4.1070  0.000000 -0.000000  0.000000 -0.000000  0.000000 -0.000000  0.000001 -0.000002  0.000003 -0.000007
                                 0.000014 -0.000031  0.000071 -0.000174  0.000447 -0.001173  0.003032 -0.007394  0.016360 -0.032391
                                 0.057101 -0.076994  0.008840  0.171454 -0.040021 -0.214131 -0.144873 -0.026266  0.352428 -0.210756
                                 0.529657 -0.140047  0.694587  0.000000  0.000000 -0.000000 -0.000000  0.000000  0.000000 -0.000000
                                -0.000000  0.000000  0.000000 -0.000000 -0.000000  0.000000  0.000000 -0.000000 -0.000000  0.000000
                                 0.000000 -0.000000  0.000000  0.000000 -0.000000 -0.000000  0.000000 -0.000000  0.000000 -0.000000
                                 0.000000 -0.000000  0.000000 -0.000000 -0.000000 -0.000000 -0.000000 -0.000000 -0.000000 -0.000000
                                -0.000000 -0.000000  0.000000 -0.000000 -0.000000 -0.000000 -0.000000  0.000000

   5.1   0     0.0228   -2.1468  0.000000 -0.000000  0.000000 -0.000000  0.000000 -0.000000  0.000000 -0.000000  0.000001 -0.000002
                                 0.000003 -0.000007  0.000017 -0.000041  0.000107 -0.000289  0.000785 -0.002077  0.005174 -0.011947
                                 0.024470 -0.034345 -0.016898  0.145574 -0.089737 -0.035048 -0.238746  0.640005 -2.266787  2.988799
                                -2.247478  3.903673 -3.019909 -0.000000 -0.000000  0.000000 -0.000000 -0.000000  0.000000  0.000000
                                -0.000000 -0.000000  0.000000  0.000000 -0.000000 -0.000000  0.000000  0.000000  0.000000 -0.000000
                                -0.000000  0.000000  0.000000 -0.000000 -0.000000  0.000000  0.000000  0.000000 -0.000000 -0.000000
                                 0.000000  0.000000 -0.000000 -0.000000  0.000000  0.000000 -0.000000 -0.000000  0.000000  0.000000
                                 0.000000  0.000000 -0.000000 -0.000000 -0.000000 -0.000000  0.000000  0.000000

                                   1 2px     1 2px     1 2px     1 2px     1 2px     1 2px     1 2px     1 2px     1 2px     1 2px  
                                   1 2px     1 2px     1 2px     1 2px     1 2px     1 2px     1 2px     1 2px     1 2px     1 2px  
                                   1 2px     1 2px     1 2px     1 2px     1 2px     1 2px     1 4f1+    1 4f3+    1 4f1+    1 4f3+ 
                                   1 4f1+    1 4f3+    1 4f1+    1 4f3+    1 4f1+    1 4f3+    1 4f1+    1 4f3+    1 4f1+    1 4f3+ 
                                   1 4f1+    1 4f3+    1 4f1+    1 4f3+    1 4f1+    1 4f3+    1 4f1+    1 4f3+    1 4f1+    1 4f3+ 
                                   1 4f1+    1 4f3+    1 4f1+    1 4f3+    1 4f1+    1 4f3+    1 4f1+    1 4f3+    1 4f1+    1 4f3+ 


   1.2   2    -2.4402  -16.0179  0.000000 -0.000000  0.000000 -0.000000  0.000000 -0.000000  0.000000 -0.000002  0.000005 -0.000015
                                 0.000049 -0.000158  0.000713 -0.002792  0.005662 -0.005279 -0.007147  0.102393 -0.316665 -0.009011
                                 0.514639  0.508084  0.157890  0.000548  0.003512 -0.001057 -0.000000 -0.000000  0.000000  0.000000
                                -0.000000 -0.000000  0.000000  0.000000 -0.000000 -0.000000 -0.000000  0.000000  0.000000 -0.000000
                                 0.000000  0.000000 -0.000000 -0.000000  0.000000  0.000000 -0.000000  0.000000  0.000000 -0.000000
                                -0.000000 -0.000000  0.000000  0.000000 -0.000000 -0.000000  0.000000  0.000000 -0.000000  0.000000

   2.2   0     0.0380   -2.2629 -0.000000  0.000000 -0.000000  0.000000 -0.000000  0.000000 -0.000001  0.000002 -0.000007  0.000023
                                -0.000069  0.000219 -0.000904  0.003281 -0.006238  0.006160 -0.004960  0.002209  0.004866  0.016441
                                -0.055086  0.013244 -0.073433  0.188597 -0.391473  1.221583  0.000000 -0.000000  0.000000  0.000000
                                -0.000000 -0.000000  0.000000  0.000000 -0.000000 -0.000000  0.000000  0.000000 -0.000000 -0.000000
                                 0.000000  0.000000 -0.000000 -0.000000  0.000000  0.000000 -0.000000 -0.000000  0.000000  0.000000
                                -0.000000 -0.000000  0.000000  0.000000 -0.000000 -0.000000  0.000000  0.000000 -0.000000 -0.000000

   3.2   0     0.1370   -3.4589  0.000000 -0.000000  0.000000 -0.000000  0.000000 -0.000000  0.000002 -0.000006  0.000020 -0.000063
                                 0.000189 -0.000606  0.002476 -0.008914  0.016811 -0.016620  0.016440 -0.035617  0.079863 -0.052058
                                -0.002206 -0.220719  0.206280 -0.422373  1.842175 -1.090139 -0.000000 -0.000000  0.000000  0.000000
                                -0.000000 -0.000000  0.000000  0.000000 -0.000000 -0.000000  0.000000  0.000000  0.000000 -0.000000
                                -0.000000  0.000000  0.000000 -0.000000 -0.000000  0.000000 -0.000000 -0.000000  0.000000  0.000000
                                -0.000000 -0.000000  0.000000  0.000000  0.000000 -0.000000 -0.000000  0.000000  0.000000 -0.000000

                                   1 2py     1 2py     1 2py     1 2py     1 2py     1 2py     1 2py     1 2py     1 2py     1 2py  
                                   1 2py     1 2py     1 2py     1 2py     1 2py     1 2py     1 2py     1 2py     1 2py     1 2py  
                                   1 2py     1 2py     1 2py     1 2py     1 2py     1 2py     1 4f1-    1 4f3-    1 4f1-    1 4f3- 
                                   1 4f1-    1 4f3-    1 4f1-    1 4f3-    1 4f1-    1 4f3-    1 4f1-    1 4f3-    1 4f1-    1 4f3- 
                                   1 4f1-    1 4f3-    1 4f1-    1 4f3-    1 4f1-    1 4f3-    1 4f1-    1 4f3-    1 4f1-    1 4f3- 
                                   1 4f1-    1 4f3-    1 4f1-    1 4f3-    1 4f1-    1 4f3-    1 4f1-    1 4f3-    1 4f1-    1 4f3- 


   1.3   2    -2.4402  -16.0179  0.000000 -0.000000  0.000000 -0.000000  0.000000 -0.000000  0.000000 -0.000002  0.000005 -0.000015
                                 0.000049 -0.000158  0.000713 -0.002792  0.005662 -0.005279 -0.007147  0.102393 -0.316665 -0.009011
                                 0.514638  0.508084  0.157890  0.000548  0.003512 -0.001057 -0.000000 -0.000000  0.000000  0.000000
                                -0.000000 -0.000000  0.000000  0.000000 -0.000000 -0.000000  0.000000  0.000000 -0.000000 -0.000000
                                 0.000000  0.000000 -0.000000 -0.000000  0.000000  0.000000 -0.000000  0.000000 -0.000000 -0.000000
                                 0.000000  0.000000 -0.000000 -0.000000  0.000000  0.000000  0.000000 -0.000000 -0.000000  0.000000

   2.3   0     0.0380   -2.2629 -0.000000  0.000000 -0.000000  0.000000 -0.000000  0.000000 -0.000001  0.000002 -0.000007  0.000023
                                -0.000069  0.000219 -0.000904  0.003281 -0.006238  0.006160 -0.004960  0.002209  0.004866  0.016441
                                -0.055086  0.013244 -0.073433  0.188597 -0.391473  1.221583  0.000000 -0.000000  0.000000  0.000000
                                -0.000000 -0.000000  0.000000  0.000000 -0.000000 -0.000000  0.000000  0.000000 -0.000000 -0.000000
                                 0.000000  0.000000 -0.000000 -0.000000  0.000000 -0.000000 -0.000000 -0.000000  0.000000  0.000000
                                -0.000000 -0.000000  0.000000  0.000000 -0.000000 -0.000000  0.000000  0.000000 -0.000000 -0.000000

   3.3   0     0.1370   -3.4589  0.000000 -0.000000  0.000000 -0.000000  0.000000 -0.000000  0.000002 -0.000006  0.000020 -0.000063
                                 0.000189 -0.000606  0.002476 -0.008914  0.016811 -0.016620  0.016440 -0.035617  0.079863 -0.052058
                                -0.002206 -0.220719  0.206280 -0.422373  1.842175 -1.090139 -0.000000  0.000000 -0.000000 -0.000000
                                 0.000000  0.000000 -0.000000 -0.000000  0.000000  0.000000 -0.000000 -0.000000  0.000000 -0.000000
                                -0.000000  0.000000  0.000000 -0.000000 -0.000000  0.000000  0.000000 -0.000000 -0.000000  0.000000
                                 0.000000 -0.000000 -0.000000  0.000000  0.000000 -0.000000 -0.000000  0.000000  0.000000 -0.000000

                                   1 3d2-    1 3d2-    1 3d2-    1 3d2-    1 3d2-    1 3d2-    1 3d2-    1 3d2-    1 3d2-    1 3d2- 
                                   1 3d2-    1 3d2-    1 3d2-    1 3d2-    1 3d2-    1 3d2-    1 3d2-    1 3d2-    1 5g2-    1 5g4- 
                                   1 5g2-    1 5g4-    1 5g2-    1 5g4- 

   1.4   2    -0.3230  -10.0155 -0.000000  0.000000 -0.000001  0.000006 -0.000018  0.000061 -0.000117  0.000324 -0.000586  0.010484
                                -0.081862  0.083719  0.293841  0.157994  0.320962  0.281840  0.134191  0.004062  0.000000  0.000000
                                -0.000000  0.000000 -0.000000 -0.000000

   2.4   0     0.1144   -2.3592 -0.000000  0.000001 -0.000005  0.000021 -0.000072  0.000212 -0.000558  0.001291 -0.002733  0.004459
                                -0.001958  0.016046 -0.136150  0.171423 -0.244152  0.181606 -0.447192  1.230181 -0.000000 -0.000000
                                 0.000000  0.000000  0.000000 -0.000000

   3.4   0     0.4076   -3.5309  0.000000 -0.000003  0.000018 -0.000077  0.000263 -0.000777  0.002014 -0.004700  0.009866 -0.023576
                                 0.071499 -0.124056  0.246363 -0.746882  0.639335 -0.982562  1.850502 -0.826176 -0.000000 -0.000000
                                 0.000000  0.000000 -0.000000 -0.000000

                                   1 2pz     1 2pz     1 2pz     1 2pz     1 2pz     1 2pz     1 2pz     1 2pz     1 2pz     1 2pz  
                                   1 2pz     1 2pz     1 2pz     1 2pz     1 2pz     1 2pz     1 2pz     1 2pz     1 2pz     1 2pz  
                                   1 2pz     1 2pz     1 2pz     1 2pz     1 2pz     1 2pz     1 4f0     1 4f2+    1 4f0     1 4f2+ 
                                   1 4f0     1 4f2+    1 4f0     1 4f2+    1 4f0     1 4f2+    1 4f0     1 4f2+    1 4f0     1 4f2+ 
                                   1 4f0     1 4f2+    1 4f0     1 4f2+    1 4f0     1 4f2+    1 4f0     1 4f2+    1 4f0     1 4f2+ 
                                   1 4f0     1 4f2+    1 4f0     1 4f2+    1 4f0     1 4f2+    1 4f0     1 4f2+    1 4f0     1 4f2+ 


   1.5   2    -2.4402  -16.0179  0.000000 -0.000000  0.000000 -0.000000  0.000000 -0.000000  0.000000 -0.000002  0.000005 -0.000015
                                 0.000049 -0.000158  0.000713 -0.002792  0.005662 -0.005279 -0.007147  0.102393 -0.316665 -0.009011
                                 0.514639  0.508084  0.157890  0.000548  0.003512 -0.001057  0.000000  0.000000 -0.000000 -0.000000
                                 0.000000  0.000000 -0.000000 -0.000000  0.000000  0.000000 -0.000000 -0.000000  0.000000  0.000000
                                 0.000000 -0.000000 -0.000000 -0.000000  0.000000  0.000000 -0.000000  0.000000 -0.000000 -0.000000
                                 0.000000  0.000000 -0.000000 -0.000000  0.000000  0.000000 -0.000000 -0.000000  0.000000  0.000000

   2.5   0     0.0380   -2.2629 -0.000000  0.000000 -0.000000  0.000000 -0.000000  0.000000 -0.000001  0.000002 -0.000007  0.000023
                                -0.000069  0.000219 -0.000904  0.003281 -0.006238  0.006160 -0.004960  0.002209  0.004866  0.016441
                                -0.055086  0.013244 -0.073433  0.188597 -0.391473  1.221583 -0.000000 -0.000000  0.000000  0.000000
                                -0.000000 -0.000000  0.000000  0.000000 -0.000000 -0.000000  0.000000  0.000000 -0.000000 -0.000000
                                 0.000000  0.000000 -0.000000 -0.000000  0.000000  0.000000  0.000000 -0.000000  0.000000  0.000000
                                 0.000000 -0.000000 -0.000000  0.000000  0.000000 -0.000000 -0.000000  0.000000  0.000000 -0.000000

   3.5   0     0.1370   -3.4589  0.000000 -0.000000  0.000000 -0.000000  0.000000 -0.000000  0.000002 -0.000006  0.000020 -0.000063
                                 0.000189 -0.000606  0.002476 -0.008914  0.016811 -0.016620  0.016440 -0.035617  0.079863 -0.052058
                                -0.002206 -0.220719  0.206280 -0.422373  1.842175 -1.090139  0.000000 -0.000000 -0.000000  0.000000
                                 0.000000 -0.000000 -0.000000  0.000000  0.000000  0.000000 -0.000000 -0.000000  0.000000  0.000000
                                -0.000000 -0.000000  0.000000  0.000000 -0.000000 -0.000000  0.000000  0.000000 -0.000000 -0.000000
                                 0.000000  0.000000  0.000000 -0.000000 -0.000000 -0.000000  0.000000  0.000000 -0.000000 -0.000000

                                   1 3d1+    1 3d1+    1 3d1+    1 3d1+    1 3d1+    1 3d1+    1 3d1+    1 3d1+    1 3d1+    1 3d1+ 
                                   1 3d1+    1 3d1+    1 3d1+    1 3d1+    1 3d1+    1 3d1+    1 3d1+    1 3d1+    1 5g1+    1 5g3+ 
                                   1 5g1+    1 5g3+    1 5g1+    1 5g3+ 

   1.6   2    -0.3230  -10.0155 -0.000000  0.000000 -0.000001  0.000006 -0.000018  0.000061 -0.000117  0.000324 -0.000586  0.010484
                                -0.081862  0.083719  0.293841  0.157994  0.320962  0.281840  0.134191  0.004062  0.000000  0.000000
                                -0.000000  0.000000 -0.000000 -0.000000

   2.6   0     0.1144   -2.3592 -0.000000  0.000001 -0.000005  0.000021 -0.000072  0.000212 -0.000558  0.001291 -0.002733  0.004459
                                -0.001958  0.016046 -0.136150  0.171423 -0.244152  0.181606 -0.447192  1.230181 -0.000000 -0.000000
                                -0.000000  0.000000  0.000000 -0.000000

   3.6   0     0.4076   -3.5309  0.000000 -0.000003  0.000018 -0.000077  0.000263 -0.000777  0.002014 -0.004700  0.009866 -0.023576
                                 0.071499 -0.124056  0.246363 -0.746882  0.639335 -0.982562  1.850502 -0.826176 -0.000000 -0.000000
                                 0.000000  0.000000 -0.000000 -0.000000

                                   1 3d1-    1 3d1-    1 3d1-    1 3d1-    1 3d1-    1 3d1-    1 3d1-    1 3d1-    1 3d1-    1 3d1- 
                                   1 3d1-    1 3d1-    1 3d1-    1 3d1-    1 3d1-    1 3d1-    1 3d1-    1 3d1-    1 5g1-    1 5g3- 
                                   1 5g1-    1 5g3-    1 5g1-    1 5g3- 

   1.7   2    -0.3230  -10.0155 -0.000000  0.000000 -0.000001  0.000006 -0.000018  0.000061 -0.000117  0.000324 -0.000586  0.010484
                                -0.081862  0.083719  0.293841  0.157994  0.320962  0.281840  0.134191  0.004062  0.000000  0.000000
                                -0.000000 -0.000000 -0.000000 -0.000000

   2.7   0     0.1144   -2.3592 -0.000000  0.000001 -0.000005  0.000021 -0.000072  0.000212 -0.000558  0.001291 -0.002733  0.004459
                                -0.001958  0.016046 -0.136150  0.171423 -0.244152  0.181606 -0.447192  1.230181 -0.000000 -0.000000
                                 0.000000  0.000000  0.000000 -0.000000

   3.7   0     0.4076   -3.5309  0.000000 -0.000003  0.000018 -0.000077  0.000263 -0.000777  0.002014 -0.004700  0.009866 -0.023576
                                 0.071499 -0.124056  0.246363 -0.746882  0.639335 -0.982562  1.850502 -0.826176 -0.000000 -0.000000
                                 0.000000  0.000000 -0.000000 -0.000000

                                   1 4f2-    1 4f2-    1 4f2-    1 4f2-    1 4f2-    1 4f2-    1 4f2-    1 4f2-    1 4f2-    1 4f2- 
                                   1 4f2-    1 4f2-    1 4f2-    1 4f2-    1 4f2-    1 4f2-    1 4f2- 

   1.8   0     0.1576   -1.9468  0.000003 -0.000050  0.000165 -0.000226  0.000331 -0.000749  0.001686 -0.003522  0.007069 -0.014833
                                 0.056760 -0.120278  0.273914 -0.486103  0.802621 -2.139312  2.518194

   2.8   0     0.3821   -2.3987 -0.000006  0.000093 -0.000306  0.000420 -0.000614  0.001393 -0.003125  0.006618 -0.013136  0.028369
                                -0.099599  0.232256 -0.503892  0.960103 -1.564576  4.052359 -2.615637

 HOMO      3.1    -0.322973 =      -8.7886eV
 LUMO      4.1    -0.006747 =      -0.1836eV
 LUMO-HOMO         0.316226 =       8.6049eV


 **********************************************************************************************************************************
 DATASETS  * FILE   NREC   LENGTH (MB)   RECORD NAMES
              1      19       20.81       500      610      700      900      950      970     1000      129      960     1100   
                                          VAR    BASINP    GEOM    SYMINP    ZMAT    AOBASIS   BASIS     P2S    ABASIS      S 
                                         1400     1410     1420     1200     1210     1080     1600     1650     1700   
                                           T        V       ECP      H0       H01     AOSYM     SMH    MOLCAS    OPER   

              2       5        5.77       200      700     1000      520     4202   
                                        OPTIONS   GEOM     BASIS   MCVARS     RHF  

 PROGRAMS   *        TOTAL       RHF       INT
 CPU TIMES  *        75.99      1.07     74.54
 REAL TIME  *        79.01 SEC
 DISK USED  *         3.20 GB      
 SF USED    *         0.08 MB      
 GA USED    *         0.00 MB       (max)       0.00 MB       (current)
 **********************************************************************************************************************************
 SETTING SCF(1)         =      -118.36191934  AU                              
 SETTING _CC_NORM_MAX   =         2.00000000                                  


 PROGRAM * CCSD (Restricted open-shell coupled cluster)     Authors: C. Hampel, H.-J. Werner, 1991, M. Deegan, P.J. Knowles, 1992


 Convergence thresholds:  THRVAR = 1.00D-08  THRDEN = 1.00D-06

 CCSD(T)     terms to be evaluated (factor= 1.000)


 Number of closed-shell orbitals:   9 (   3   1   1   1   1   1   1   0 )
 Number of external orbitals:     338 (  75  59  59  23  59  23  23  17 )

 Memory could be reduced to 82.18 Mwords without degradation in triples

 Number of N-1 electron functions:              18
 Number of N-2 electron functions:             153
 Number of singly external CSFs:               942
 Number of doubly external CSFs:           1702326
 Total number of CSFs:                     1703268

 Molecular orbitals read from record     4202.2  Type=RHF/CANONICAL (state 1.1)

 Integral transformation finished. Total CPU:   1.59 sec, npass=  1  Memory used:  15.16 MW

 Starting RMP2 calculation

 Wavefunction is spin-projected

 ITER.      SQ.NORM     CORR.ENERGY   TOTAL ENERGY   ENERGY CHANGE        DEN1      VAR(S)    VAR(P)  DIIS     TIME
   1      1.14465467    -0.69163610  -119.05355544    -0.69163610    -0.00155328  0.34D-11  0.68D-03  1  1     1.76
   2      1.14626822    -0.69328546  -119.05520481    -0.00164936    -0.00000563  0.14D-12  0.46D-05  2  2     1.94
   3      1.14638005    -0.69334192  -119.05526126    -0.00005646    -0.00000003  0.33D-14  0.35D-07  3  3     2.16
   4      1.14638465    -0.69334275  -119.05526209    -0.00000083    -0.00000000  0.41D-16  0.20D-09  4  4     2.37

 Norm of t1 vector:      0.00001014      S-energy:    -0.00000000      T1 diagnostic:  0.00000169
 Norm of t2 vector:      0.38260247      P-energy:    -0.69334275
                                         Alpha-Beta:  -0.48089962
                                         Alpha-Alpha: -0.10622156
                                         Beta-Beta:   -0.10622156

 Spin contamination <S**2-Sz**2-Sz>     0.00000000
  Reference energy                   -118.361919343972
  RHF-RMP2 correlation energy          -0.693342745658
 !RHF-RMP2 energy                    -119.055262089630
 (NB above energy spin projected)

 Starting RCCSD calculation

 ITER.      SQ.NORM     CORR.ENERGY   TOTAL ENERGY   ENERGY CHANGE        DEN1      VAR(S)    VAR(P)  DIIS     TIME
   1      1.11757842    -0.64190067  -119.00382001    -0.64190067    -0.01315198  0.16D-02  0.27D-02  1  1     3.78
   2      1.12617613    -0.65375031  -119.01566966    -0.01184965    -0.00077028  0.13D-04  0.39D-03  2  2     4.96
   3      1.12832622    -0.65424721  -119.01616656    -0.00049690    -0.00011454  0.33D-04  0.64D-04  3  3     6.13
   4      1.12989563    -0.65469752  -119.01661687    -0.00045031    -0.00002077  0.15D-06  0.16D-04  4  4     7.21
   5      1.13084146    -0.65488623  -119.01680558    -0.00018871    -0.00000249  0.13D-06  0.19D-05  5  5     8.30
   6      1.13114632    -0.65491796  -119.01683730    -0.00003173    -0.00000016  0.31D-07  0.86D-07  6  6     9.42
   7      1.13117216    -0.65492079  -119.01684013    -0.00000283    -0.00000002  0.36D-08  0.10D-07  6  2    10.53
   8      1.13117603    -0.65492145  -119.01684079    -0.00000066    -0.00000000  0.79D-09  0.93D-09  6  1    11.67

 Norm of t1 vector:      0.04424473      S-energy:     0.00000014      T1 diagnostic:  0.00737412
                                                                       D1 diagnostic:  0.01311346
 Norm of t2 vector:      0.35946965      P-energy:    -0.65492159
                                         Alpha-Beta:  -0.47181064
                                         Alpha-Alpha: -0.09155547
                                         Beta-Beta:   -0.09155547

 Spin contamination <S**2-Sz**2-Sz>     0.00000000

 Memory could be reduced to 84.40 Mwords without degradation in triples
 

  Correlated core orbitals:             1.1       1.2       1.3       1.5
  Orbital energies:                    -4.3257   -2.4402   -2.4402   -2.4402
 
  RCCSD core-core energy               -0.105696401918
  RCCSD core-valence energy            -0.222694300513
  RCCSD valence correlation energy     -0.326530743320
 

 RESULTS
 =======

  Reference energy                   -118.361919343972
  RCCSD singles energy                  0.000000143974
  RCCSD pair energy                    -0.654921589725
  RCCSD correlation energy             -0.654921445750
  Triples (T) contribution             -0.028890626863
  Total correlation energy             -0.683812072613
 
  RHF-RCCSD energy                   -119.016840789722
  RHF-RCCSD[T] energy                -119.046472534411
  RHF-RCCSD-T energy                 -119.045503332349
 !RHF-RCCSD(T) energy                -119.045731416585

 Program statistics:

 Available memory in ccsd:              1023999162
 Min. memory needed in ccsd:               5073078
 Max. memory used in ccsd:                 7141569
 Max. memory used in cckext:               5646279 ( 8 integral passes)
 Max. memory used in cckint:              15156646 ( 1 integral passes)



 **********************************************************************************************************************************
 DATASETS  * FILE   NREC   LENGTH (MB)   RECORD NAMES
              1      19       20.81       500      610      700      900      950      970     1000      129      960     1100   
                                          VAR    BASINP    GEOM    SYMINP    ZMAT    AOBASIS   BASIS     P2S    ABASIS      S 
                                         1400     1410     1420     1200     1210     1080     1600     1650     1700   
                                           T        V       ECP      H0       H01     AOSYM     SMH    MOLCAS    OPER   

              2       5        5.77       200      700     1000      520     4202   
                                        OPTIONS   GEOM     BASIS   MCVARS     RHF  

 PROGRAMS   *        TOTAL  RCCSD(T)       RHF       INT
 CPU TIMES  *       112.28     36.14      1.07     74.54
 REAL TIME  *       130.25 SEC
 DISK USED  *         5.53 GB      
 SF USED    *         1.24 GB      
 GA USED    *         0.00 MB       (max)       0.00 MB       (current)
 **********************************************************************************************************************************
 SETTING CCSD(1)        =      -119.04573142  AU                              

 DO I                   =         2.00000000   

 Running procedure=EAS2D9


 PROGRAM * RHF-SCF (OPEN SHELL)       Authors: W. Meyer, H.-J. Werner


 NUMBER OF ELECTRONS:      10+    9-    SPACE SYMMETRY=1    SPIN SYMMETRY: Doublet 
 CONVERGENCE THRESHOLDS:    1.00E-05 (Density)    1.00E-07 (Energy)
 MAX. NUMBER OF ITERATIONS:       60
 INTERPOLATION TYPE:            DIIS
 INTERPOLATION STEPS:              2 (START)      1 (STEP)
 LEVEL SHIFTS:                 -0.60 (CLOSED) -0.30 (OPEN) 

 Number of closed-shell orbitals:    9 (   3   1   1   1   1   1   1   0 )
 Number of open-shell orbitals:      1 (   1   0   0   0   0   0   0   0 )


 
 Extra symmetries of mos in symmetry 1:   1   1   3   2
 Orbital guess generated from atomic densities. Full valence occupancy:    4   1   1   1   1   1   1   0


 Molecular orbital dump at record        4202.2

 ITERATION    DDIFF          GRAD             ENERGY        2-EL.EN.            DIPOLE MOMENTS         DIIS   ORB.
    1      0.000D+00      0.000D+00      -118.28850934    198.059016    0.00000    0.00000    0.00000    0    start
    2      0.000D+00      0.150D-01      -118.38768587    190.183561    0.00000    0.00000    0.00000    1    diag,B
    3      0.613D-02      0.568D-02      -118.39897008    190.811085    0.00000    0.00000    0.00000    2    diag,B
    4      0.192D-02      0.175D-02      -118.40526176    190.161551    0.00000    0.00000    0.00000    3    diag,B
    5      0.239D-02      0.992D-03      -118.40902371    189.685388    0.00000    0.00000    0.00000    4    diag,B
    6      0.320D-02      0.590D-03      -118.41103574    189.319661    0.00000    0.00000    0.00000    5    diag,B
    7      0.303D-02      0.333D-03      -118.41180932    189.142258    0.00000    0.00000    0.00000    6    fixocc
    8      0.241D-02      0.192D-03      -118.41209524    189.023970    0.00000    0.00000    0.00000    7    diag,B
    9      0.318D-02      0.113D-03      -118.41220853    188.966717    0.00000    0.00000    0.00000    8    diag,B
   10      0.228D-02      0.684D-04      -118.41224787    188.933540    0.00000    0.00000    0.00000    9    orth
   11      0.886D-03      0.487D-04      -118.41227989    188.911373    0.00000    0.00000    0.00000    9    diag,B
   12      0.238D-02      0.146D-04      -118.41228182    188.897255    0.00000    0.00000    0.00000    9    diag,B
   13      0.522D-03      0.615D-05      -118.41228196    188.899283    0.00000    0.00000    0.00000    9    diag,B
   14      0.986D-04      0.229D-05      -118.41228197    188.898033    0.00000    0.00000    0.00000    9    diag,B
   15      0.337D-04      0.113D-05      -118.41228198    188.898603    0.00000    0.00000    0.00000    9    diag,B
   16      0.746D-05      0.600D-06      -118.41228198    188.898579    0.00000    0.00000    0.00000    0    orth

 Final alpha occupancy:   4   1   1   1   1   1   1   0
 Final beta  occupancy:   3   1   1   1   1   1   1   0

 !RHF STATE 1.1 Energy               -118.412281979697
 Nuclear energy                         0.00000000
 One-electron energy                 -212.86157167
 Two-electron energy                   94.44928969
 Virial quotient                       -2.91334179
 !RHF STATE 1.1 Dipole moment           0.00000000     0.00000000     0.00000000
 Dipole moment /Debye                   0.00000000     0.00000000     0.00000000

 ELECTRON ORBITALS
 =================


   Orb  Occ    Energy  Couls-En    Coefficients

                                   1 1s      1 1s      1 1s      1 1s      1 1s      1 1s      1 1s      1 1s      1 1s      1 1s   
                                   1 1s      1 1s      1 1s      1 1s      1 1s      1 1s      1 1s      1 1s      1 1s      1 1s   
                                   1 1s      1 1s      1 1s      1 1s      1 1s      1 1s      1 1s      1 1s      1 1s      1 1s   
                                   1 1s      1 1s      1 1s      1 3d0     1 3d2+    1 3d0     1 3d2+    1 3d0     1 3d2+    1 3d0  
                                   1 3d2+    1 3d0     1 3d2+    1 3d0     1 3d2+    1 3d0     1 3d2+    1 3d0     1 3d2+    1 3d0  
                                   1 3d2+    1 3d0     1 3d2+    1 3d0     1 3d2+    1 3d0     1 3d2+    1 3d0     1 3d2+    1 3d0  
                                   1 3d2+    1 3d0     1 3d2+    1 3d0     1 3d2+    1 3d0     1 3d2+    1 3d0     1 3d2+    1 5g0  
                                   1 5g4+    1 5g2+    1 5g0     1 5g4+    1 5g2+    1 5g0     1 5g4+    1 5g2+ 

   1.1   2    -4.2060  -20.1257 -0.000000  0.000000 -0.000000  0.000000 -0.000001  0.000002 -0.000004  0.000009 -0.000018  0.000037
                                -0.000078  0.000171 -0.000397  0.000975 -0.002501  0.006556 -0.016934  0.041273 -0.091203  0.179978
                                -0.314397  0.413618 -0.023592 -0.901096  0.204381  0.794370  0.465861  0.010298  0.031351 -0.026819
                                 0.007846 -0.002694  0.000797 -0.000000  0.000000  0.000000 -0.000000 -0.000000  0.000000  0.000000
                                -0.000000 -0.000001  0.000000  0.000002 -0.000000 -0.000004  0.000000  0.000010 -0.000000 -0.000024
                                 0.000000  0.000106 -0.000000 -0.000512  0.000000  0.000707 -0.000000  0.001794 -0.000000 -0.000638
                                -0.000000 -0.001175 -0.000000 -0.001357 -0.000000 -0.000417 -0.000000 -0.000017  0.000000 -0.000018
                                 0.000000 -0.000000 -0.000736 -0.000000 -0.000000 -0.000461 -0.000000 -0.000000

   2.1   2    -0.0418   -5.5533  0.000000 -0.000000  0.000000 -0.000000  0.000000 -0.000000  0.000001 -0.000002  0.000005 -0.000009
                                 0.000020 -0.000043  0.000100 -0.000247  0.000632 -0.001659  0.004294 -0.010496  0.023309 -0.046405
                                 0.082334 -0.111349  0.010140  0.257829 -0.066140 -0.311121 -0.245446  0.119161  0.147647  0.249241
                                 0.393761  0.227187  0.093365  0.000000 -0.000000 -0.000000  0.000000  0.000000 -0.000000 -0.000000
                                 0.000000  0.000000 -0.000000 -0.000002  0.000000  0.000003 -0.000000 -0.000008  0.000000  0.000015
                                -0.000000 -0.000327  0.000000  0.002606 -0.000001 -0.002723  0.000001 -0.010249  0.000002 -0.004101
                                 0.000001 -0.008871  0.000002 -0.002324  0.000001  0.001221  0.000000  0.002107 -0.000000 -0.000364
                                -0.000000 -0.000000 -0.000368 -0.000000 -0.000000 -0.000038 -0.000000  0.000000

   3.1   2    -0.1631   -9.9508 -0.000000  0.000000 -0.000000  0.000000 -0.000000  0.000000 -0.000000  0.000000 -0.000000  0.000000
                                -0.000000  0.000000 -0.000000  0.000000 -0.000000  0.000000 -0.000000  0.000000 -0.000000  0.000001
                                -0.000001  0.000002 -0.000000 -0.000004  0.000001  0.000005  0.000002 -0.000003 -0.000001 -0.000004
                                -0.000002 -0.000000  0.000000  0.000000 -0.000000 -0.000000  0.000000  0.000000 -0.000001 -0.000000
                                 0.000006  0.000000 -0.000017 -0.000000  0.000058  0.000000 -0.000108 -0.000000  0.000304  0.000000
                                -0.000537 -0.000001  0.010602  0.000005 -0.083665 -0.000005  0.085601 -0.000017  0.304006 -0.000009
                                 0.159651 -0.000019  0.328732 -0.000015  0.264458 -0.000007  0.123995 -0.000001  0.010674 -0.000000
                                -0.000000  0.000949 -0.000000 -0.000000  0.001748 -0.000000 -0.000000  0.002878

   4.1   +    -0.2382  -10.1603  0.000000 -0.000000  0.000000 -0.000000  0.000000 -0.000000  0.000000 -0.000000  0.000000 -0.000001
                                 0.000002 -0.000004  0.000009 -0.000022  0.000056 -0.000147  0.000379 -0.000924  0.002045 -0.004056
                                 0.007178 -0.009769  0.001238  0.022559 -0.005913 -0.036408 -0.010775  0.044103 -0.005288  0.029766
                                -0.010322 -0.009180 -0.004793 -0.000000 -0.000000  0.000000  0.000000 -0.000001 -0.000000  0.000006
                                 0.000000 -0.000017 -0.000000  0.000059  0.000000 -0.000110 -0.000000  0.000311  0.000000 -0.000555
                                -0.000000  0.010821  0.000001 -0.085025 -0.000005  0.085617  0.000005  0.311849  0.000018  0.164669
                                 0.000009  0.339409  0.000019  0.253569  0.000014  0.098251  0.000006  0.001902  0.000000  0.002304
                                -0.000000 -0.000000  0.005921 -0.000000 -0.000000  0.006489 -0.000000 -0.000000

   5.1   0     0.0941   -1.3084  0.000000 -0.000000  0.000000 -0.000000  0.000000 -0.000000  0.000000 -0.000001  0.000001 -0.000002
                                 0.000005 -0.000011  0.000027 -0.000065  0.000163 -0.000416  0.001015 -0.002228  0.004043 -0.005398
                                 0.004298 -0.003712  0.032214 -0.097161  0.106963 -0.099777  0.257192 -0.987005  3.593824 -4.547474
                                 3.611139 -4.813555  3.479602 -0.000000  0.000000  0.000000 -0.000000 -0.000000  0.000000  0.000000
                                -0.000000 -0.000000  0.000000  0.000001 -0.000000 -0.000002  0.000000  0.000006 -0.000000 -0.000012
                                 0.000000  0.000140 -0.000000 -0.001049  0.000000  0.001113 -0.000000  0.003733 -0.000000  0.002223
                                -0.000000  0.003033 -0.000000  0.002110 -0.000000 -0.000387  0.000000  0.001556 -0.000000  0.000093
                                 0.000000  0.000000 -0.000053 -0.000000 -0.000000 -0.000403 -0.000000 -0.000000

   6.1   0     0.1912   -2.1571 -0.000000  0.000000 -0.000000  0.000000 -0.000000  0.000001 -0.000001  0.000003 -0.000006  0.000013
                                -0.000027  0.000060 -0.000139  0.000341 -0.000869  0.002251 -0.005696  0.013379 -0.027777  0.049628
                                -0.076760  0.099360 -0.077523 -0.003043 -0.177104  0.475587 -0.354754  2.104885 -8.338288 10.317177
                                -8.577597  7.326201 -2.662422 -0.000000  0.000000  0.000000 -0.000000 -0.000000  0.000000  0.000001
                                -0.000000 -0.000002  0.000000  0.000006 -0.000000 -0.000014  0.000000  0.000033 -0.000000 -0.000068
                                 0.000000  0.000368 -0.000000 -0.002253  0.000000  0.002589 -0.000000  0.006206 -0.000000  0.006562
                                -0.000000  0.003248  0.000000  0.005771 -0.000000 -0.006483  0.000001  0.019234 -0.000002  0.000219
                                 0.000000  0.000000 -0.000194 -0.000000 -0.000000 -0.001090 -0.000000 -0.000000

                                   1 2px     1 2px     1 2px     1 2px     1 2px     1 2px     1 2px     1 2px     1 2px     1 2px  
                                   1 2px     1 2px     1 2px     1 2px     1 2px     1 2px     1 2px     1 2px     1 2px     1 2px  
                                   1 2px     1 2px     1 2px     1 2px     1 2px     1 2px     1 4f1+    1 4f3+    1 4f1+    1 4f3+ 
                                   1 4f1+    1 4f3+    1 4f1+    1 4f3+    1 4f1+    1 4f3+    1 4f1+    1 4f3+    1 4f1+    1 4f3+ 
                                   1 4f1+    1 4f3+    1 4f1+    1 4f3+    1 4f1+    1 4f3+    1 4f1+    1 4f3+    1 4f1+    1 4f3+ 
                                   1 4f1+    1 4f3+    1 4f1+    1 4f3+    1 4f1+    1 4f3+    1 4f1+    1 4f3+    1 4f1+    1 4f3+ 


   1.2   2    -2.3017  -15.8950  0.000000 -0.000000  0.000000 -0.000000  0.000000 -0.000000  0.000000 -0.000002  0.000006 -0.000017
                                 0.000054 -0.000172  0.000773 -0.003009  0.006080 -0.005697 -0.006824  0.102477 -0.317832 -0.010274
                                 0.521678  0.508209  0.150397  0.001766  0.004063 -0.000963 -0.000000  0.000000  0.000001 -0.000000
                                -0.000004  0.000000  0.000005 -0.000000 -0.000007  0.000000  0.000019 -0.000000 -0.000036  0.000000
                                 0.000118 -0.000000 -0.000247  0.000000  0.000985 -0.000000  0.003324 -0.000000  0.001824 -0.000000
                                 0.002163 -0.000000 -0.000140  0.000000  0.000407 -0.000000 -0.000162  0.000000  0.000086 -0.000000

   2.2   0     0.1477   -1.9435 -0.000000  0.000000 -0.000000  0.000000 -0.000000  0.000000 -0.000001  0.000004 -0.000013  0.000041
                                -0.000125  0.000399 -0.001639  0.005935 -0.011260  0.011122 -0.009520  0.009460 -0.008346  0.031011
                                -0.071436  0.056101 -0.128391  0.312284 -0.697405  1.379546  0.000000 -0.000000 -0.000000  0.000000
                                 0.000001 -0.000000 -0.000001  0.000000  0.000001 -0.000000 -0.000003  0.000000  0.000006 -0.000000
                                -0.000014  0.000000  0.000028 -0.000000 -0.000067  0.000000  0.000131 -0.000000 -0.000342  0.000000
                                 0.000864 -0.000000 -0.001089  0.000000  0.002771 -0.000000 -0.006015  0.000001  0.008399 -0.000001

   3.2   0     0.2766   -2.1448  0.000000 -0.000000  0.000000 -0.000000  0.000000 -0.000000  0.000001 -0.000004  0.000012 -0.000037
                                 0.000111 -0.000356  0.001456 -0.005243  0.009895 -0.009781  0.009516 -0.019434  0.042223 -0.030138
                                 0.005986 -0.121182  0.124211 -0.224320  0.858781 -0.440117  0.000003 -0.000000 -0.000053  0.000000
                                 0.000175 -0.000000 -0.000240  0.000000  0.000351 -0.000000 -0.000794  0.000000  0.001787 -0.000000
                                -0.003738  0.000000  0.007494 -0.000000 -0.015769  0.000000  0.059548 -0.000000 -0.127046  0.000000
                                 0.287009 -0.000001 -0.508567  0.000001  0.833620 -0.000002 -2.160965  0.000003  2.392295 -0.000004

                                   1 2py     1 2py     1 2py     1 2py     1 2py     1 2py     1 2py     1 2py     1 2py     1 2py  
                                   1 2py     1 2py     1 2py     1 2py     1 2py     1 2py     1 2py     1 2py     1 2py     1 2py  
                                   1 2py     1 2py     1 2py     1 2py     1 2py     1 2py     1 4f1-    1 4f3-    1 4f1-    1 4f3- 
                                   1 4f1-    1 4f3-    1 4f1-    1 4f3-    1 4f1-    1 4f3-    1 4f1-    1 4f3-    1 4f1-    1 4f3- 
                                   1 4f1-    1 4f3-    1 4f1-    1 4f3-    1 4f1-    1 4f3-    1 4f1-    1 4f3-    1 4f1-    1 4f3- 
                                   1 4f1-    1 4f3-    1 4f1-    1 4f3-    1 4f1-    1 4f3-    1 4f1-    1 4f3-    1 4f1-    1 4f3- 


   1.3   2    -2.3017  -15.8950  0.000000 -0.000000  0.000000 -0.000000  0.000000 -0.000000  0.000000 -0.000002  0.000006 -0.000017
                                 0.000054 -0.000172  0.000773 -0.003009  0.006080 -0.005697 -0.006824  0.102477 -0.317832 -0.010274
                                 0.521679  0.508209  0.150397  0.001766  0.004063 -0.000963 -0.000000  0.000000  0.000001 -0.000000
                                -0.000004  0.000000  0.000005 -0.000000 -0.000007  0.000000  0.000019 -0.000000 -0.000036  0.000000
                                 0.000118 -0.000000 -0.000247  0.000000  0.000985 -0.000000  0.003324 -0.000000  0.001824 -0.000000
                                 0.002163 -0.000000 -0.000140  0.000000  0.000407 -0.000000 -0.000162  0.000000  0.000086 -0.000000

   2.3   0     0.1477   -1.9435 -0.000000  0.000000 -0.000000  0.000000 -0.000000  0.000000 -0.000001  0.000004 -0.000013  0.000041
                                -0.000125  0.000399 -0.001639  0.005935 -0.011260  0.011122 -0.009520  0.009460 -0.008346  0.031011
                                -0.071436  0.056101 -0.128391  0.312284 -0.697403  1.379545  0.000000 -0.000000 -0.000000  0.000000
                                 0.000001 -0.000000 -0.000001  0.000000  0.000001 -0.000000 -0.000003  0.000000  0.000006 -0.000000
                                -0.000014  0.000000  0.000028 -0.000000 -0.000067  0.000000  0.000131 -0.000000 -0.000342  0.000000
                                 0.000864 -0.000000 -0.001089  0.000000  0.002771 -0.000000 -0.006014  0.000001  0.008399 -0.000001

   3.3   0     0.2766   -2.1453  0.000000 -0.000000  0.000000 -0.000000  0.000000 -0.000000  0.000001 -0.000004  0.000012 -0.000037
                                 0.000111 -0.000356  0.001456 -0.005246  0.009900 -0.009786  0.009521 -0.019444  0.042246 -0.030154
                                 0.005989 -0.121247  0.124278 -0.224438  0.859244 -0.440353  0.000003 -0.000000 -0.000053  0.000000
                                 0.000175 -0.000000 -0.000240  0.000000  0.000351 -0.000000 -0.000794  0.000000  0.001787 -0.000000
                                -0.003737  0.000000  0.007493 -0.000000 -0.015767  0.000000  0.059539 -0.000000 -0.127026  0.000001
                                 0.286964 -0.000001 -0.508488  0.000002  0.833491 -0.000004 -2.160627  0.000010  2.391923 -0.000011

                                   1 3d2-    1 3d2-    1 3d2-    1 3d2-    1 3d2-    1 3d2-    1 3d2-    1 3d2-    1 3d2-    1 3d2- 
                                   1 3d2-    1 3d2-    1 3d2-    1 3d2-    1 3d2-    1 3d2-    1 3d2-    1 3d2-    1 5g2-    1 5g4- 
                                   1 5g2-    1 5g4-    1 5g2-    1 5g4- 

   1.4   2    -0.1631   -9.9508 -0.000000  0.000000 -0.000001  0.000006 -0.000017  0.000058 -0.000108  0.000304 -0.000537  0.010602
                                -0.083665  0.085601  0.304006  0.159651  0.328732  0.264458  0.123995  0.010674  0.000949 -0.000000
                                 0.001748 -0.000000  0.002878 -0.000000

   2.4   0     0.2443   -2.1654 -0.000000  0.000001 -0.000007  0.000029 -0.000098  0.000287 -0.000754  0.001745 -0.003688  0.006511
                                -0.006877  0.025870 -0.166617  0.236268 -0.307343  0.257348 -0.549883  1.272941 -0.000028  0.000000
                                -0.000109  0.000000 -0.000043  0.000000

   3.4   0     0.5756   -3.3828  0.000000 -0.000004  0.000020 -0.000083  0.000281 -0.000829  0.002152 -0.005020  0.010541 -0.024911
                                 0.074017 -0.130091  0.270956 -0.791569  0.686809 -0.997716  1.838722 -0.768053 -0.000044  0.000000
                                -0.000489  0.000000  0.000422 -0.000000

                                   1 2pz     1 2pz     1 2pz     1 2pz     1 2pz     1 2pz     1 2pz     1 2pz     1 2pz     1 2pz  
                                   1 2pz     1 2pz     1 2pz     1 2pz     1 2pz     1 2pz     1 2pz     1 2pz     1 2pz     1 2pz  
                                   1 2pz     1 2pz     1 2pz     1 2pz     1 2pz     1 2pz     1 4f0     1 4f2+    1 4f0     1 4f2+ 
                                   1 4f0     1 4f2+    1 4f0     1 4f2+    1 4f0     1 4f2+    1 4f0     1 4f2+    1 4f0     1 4f2+ 
                                   1 4f0     1 4f2+    1 4f0     1 4f2+    1 4f0     1 4f2+    1 4f0     1 4f2+    1 4f0     1 4f2+ 
                                   1 4f0     1 4f2+    1 4f0     1 4f2+    1 4f0     1 4f2+    1 4f0     1 4f2+    1 4f0     1 4f2+ 


   1.5   2    -2.3078  -15.9096  0.000000 -0.000000  0.000000 -0.000000  0.000000 -0.000000  0.000000 -0.000002  0.000006 -0.000017
                                 0.000054 -0.000174  0.000780 -0.003037  0.006131 -0.005744 -0.006809  0.102603 -0.318112 -0.011192
                                 0.523818  0.510078  0.147218  0.000334  0.003911 -0.000990 -0.000000  0.000000  0.000000 -0.000000
                                -0.000001  0.000000  0.000001 -0.000000 -0.000001  0.000000  0.000002 -0.000000 -0.000009  0.000000
                                 0.000016 -0.000000 -0.000085  0.000000 -0.000110 -0.000000 -0.000142 -0.000000 -0.001812 -0.000000
                                -0.002062 -0.000000 -0.000748  0.000000 -0.000416 -0.000000  0.000001  0.000000 -0.000021 -0.000000

   2.5   0     0.1464   -1.9647 -0.000000  0.000000 -0.000000  0.000000 -0.000000  0.000000 -0.000001  0.000004 -0.000013  0.000040
                                -0.000122  0.000390 -0.001605  0.005814 -0.011031  0.010896 -0.009290  0.008904 -0.007041  0.030381
                                -0.072059  0.052301 -0.125125  0.311727 -0.677898  1.368604  0.000000 -0.000000 -0.000000  0.000000
                                 0.000001 -0.000000 -0.000002  0.000000  0.000003 -0.000000 -0.000006  0.000000  0.000013 -0.000000
                                -0.000029  0.000000  0.000061 -0.000000 -0.000133  0.000000  0.000040 -0.000000 -0.000401  0.000000
                                 0.001372 -0.000000 -0.001023  0.000000  0.004139 -0.000000 -0.008126  0.000001  0.011940 -0.000001

   3.5   0     0.2703   -3.5241  0.000000 -0.000000  0.000000 -0.000000  0.000000 -0.000001  0.000002 -0.000007  0.000024 -0.000074
                                 0.000225 -0.000718  0.002936 -0.010574  0.019947 -0.019718  0.019332 -0.040623  0.089646 -0.060900
                                 0.004218 -0.255933  0.255315 -0.429273  1.781780 -0.927269  0.000000 -0.000000 -0.000006  0.000000
                                 0.000020 -0.000000 -0.000027  0.000000  0.000040 -0.000000 -0.000091  0.000000  0.000206 -0.000000
                                -0.000437  0.000000  0.000899 -0.000000 -0.001917  0.000000  0.005733 -0.000000 -0.013477  0.000001
                                 0.034502 -0.000001 -0.053837  0.000002  0.098648 -0.000004 -0.233816  0.000010  0.270565 -0.000012

                                   1 3d1+    1 3d1+    1 3d1+    1 3d1+    1 3d1+    1 3d1+    1 3d1+    1 3d1+    1 3d1+    1 3d1+ 
                                   1 3d1+    1 3d1+    1 3d1+    1 3d1+    1 3d1+    1 3d1+    1 3d1+    1 3d1+    1 5g1+    1 5g3+ 
                                   1 5g1+    1 5g3+    1 5g1+    1 5g3+ 

   1.6   2    -0.1887  -10.0260 -0.000000  0.000000 -0.000001  0.000006 -0.000017  0.000058 -0.000109  0.000307 -0.000544  0.010697
                                -0.084323  0.086044  0.307056  0.161063  0.332127  0.261514  0.115284  0.006905  0.000984 -0.000000
                                 0.002196 -0.000000  0.002830 -0.000000

   2.6   0     0.2431   -2.1629 -0.000000  0.000001 -0.000007  0.000028 -0.000097  0.000285 -0.000748  0.001732 -0.003660  0.006511
                                -0.007260  0.026118 -0.163690  0.235159 -0.303240  0.257144 -0.543233  1.270543 -0.000129  0.000000
                                -0.000485  0.000000 -0.000082  0.000000

   3.6   0     0.5709   -3.3683  0.000000 -0.000004  0.000020 -0.000082  0.000278 -0.000820  0.002128 -0.004965  0.010425 -0.024607
                                 0.072944 -0.128379  0.268892 -0.782733  0.679976 -0.983680  1.835885 -0.770551 -0.000354  0.000000
                                -0.002050  0.000000  0.001350 -0.000000

                                   1 3d1-    1 3d1-    1 3d1-    1 3d1-    1 3d1-    1 3d1-    1 3d1-    1 3d1-    1 3d1-    1 3d1- 
                                   1 3d1-    1 3d1-    1 3d1-    1 3d1-    1 3d1-    1 3d1-    1 3d1-    1 3d1-    1 5g1-    1 5g3- 
                                   1 5g1-    1 5g3-    1 5g1-    1 5g3- 

   1.7   2    -0.1887  -10.0260 -0.000000  0.000000 -0.000001  0.000006 -0.000017  0.000058 -0.000109  0.000307 -0.000544  0.010697
                                -0.084323  0.086044  0.307057  0.161064  0.332127  0.261513  0.115283  0.006905  0.000984 -0.000000
                                 0.002196 -0.000000  0.002830 -0.000000

   2.7   0     0.2431   -2.1629 -0.000000  0.000001 -0.000007  0.000028 -0.000097  0.000285 -0.000748  0.001732 -0.003660  0.006511
                                -0.007260  0.026118 -0.163689  0.235159 -0.303240  0.257144 -0.543233  1.270543 -0.000129  0.000000
                                -0.000485  0.000000 -0.000082  0.000000

   3.7   0     0.5709   -3.3683  0.000000 -0.000004  0.000020 -0.000082  0.000278 -0.000820  0.002128 -0.004965  0.010425 -0.024607
                                 0.072943 -0.128379  0.268892 -0.782732  0.679975 -0.983678  1.835884 -0.770551 -0.000354  0.000000
                                -0.002050  0.000000  0.001350 -0.000000

                                   1 4f2-    1 4f2-    1 4f2-    1 4f2-    1 4f2-    1 4f2-    1 4f2-    1 4f2-    1 4f2-    1 4f2- 
                                   1 4f2-    1 4f2-    1 4f2-    1 4f2-    1 4f2-    1 4f2-    1 4f2- 

   1.8   0     0.2773   -1.7621  0.000004 -0.000060  0.000199 -0.000273  0.000400 -0.000904  0.002035 -0.004255  0.008526 -0.017922
                                 0.067826 -0.144654  0.326022 -0.579243  0.946982 -2.461551  2.718871

   2.8   0     0.5357   -2.2201 -0.000007  0.000104 -0.000345  0.000472 -0.000691  0.001567 -0.003516  0.007433 -0.014781  0.031789
                                -0.113150  0.259954 -0.568317  1.072681 -1.736392  4.116867 -2.541143

 HOMO      1.4    -0.163051 =      -4.4368eV
 LUMO      5.1     0.094114 =       2.5610eV
 LUMO-HOMO         0.257166 =       6.9978eV


 **********************************************************************************************************************************
 DATASETS  * FILE   NREC   LENGTH (MB)   RECORD NAMES
              1      19       20.81       500      610      700      900      950      970     1000      129      960     1100   
                                          VAR    BASINP    GEOM    SYMINP    ZMAT    AOBASIS   BASIS     P2S    ABASIS      S 
                                         1400     1410     1420     1200     1210     1080     1600     1650     1700   
                                           T        V       ECP      H0       H01     AOSYM     SMH    MOLCAS    OPER   

              2       5        5.93       200      700     1000      520     4202   
                                        OPTIONS   GEOM     BASIS   MCVARS     RHF  

 PROGRAMS   *        TOTAL       RHF  RCCSD(T)       RHF       INT
 CPU TIMES  *       114.78      2.18     36.14      1.07     74.54
 REAL TIME  *       133.43 SEC
 DISK USED  *         5.53 GB      
 SF USED    *         1.24 GB      
 GA USED    *         0.00 MB       (max)       0.00 MB       (current)
 **********************************************************************************************************************************


 PROGRAM * POP (Mulliken population analysis)

 
 Density matrix read from record         4202.2  Type=RHF/CHARGE (state 1.1)
 
 Population analysis by basis function type

 Unique atom        s        p        d        f        g    Total    Charge
   1  PT      4.00054  5.99976  8.99913  0.00024  0.00034 19.00000  - 1.00000


 **********************************************************************************************************************************
 DATASETS  * FILE   NREC   LENGTH (MB)   RECORD NAMES
              1      19       20.81       500      610      700      900      950      970     1000      129      960     1100   
                                          VAR    BASINP    GEOM    SYMINP    ZMAT    AOBASIS   BASIS     P2S    ABASIS      S 
                                         1400     1410     1420     1200     1210     1080     1600     1650     1700   
                                           T        V       ECP      H0       H01     AOSYM     SMH    MOLCAS    OPER   

              2       5        5.93       200      700     1000      520     4202   
                                        OPTIONS   GEOM     BASIS   MCVARS     RHF  

 PROGRAMS   *        TOTAL       POP       RHF  RCCSD(T)       RHF       INT
 CPU TIMES  *       114.79      0.01      2.18     36.14      1.07     74.54
 REAL TIME  *       133.44 SEC
 DISK USED  *         5.53 GB      
 SF USED    *         1.24 GB      
 GA USED    *         0.00 MB       (max)       0.00 MB       (current)
 **********************************************************************************************************************************


 PROGRAM * MULTI (Direct Multiconfiguration SCF)       Authors: P.J. Knowles, H.-J. Werner (1984)     S.T. Elbert (1988)


 Number of closed-shell orbitals:   5 (   2   1   1   0   1   0   0   0 )
 Number of active  orbitals:        5 (   2   0   0   1   0   1   1   0 )
 Number of external orbitals:     337 (  74  59  59  23  59  23  23  17 )

 State symmetry 1

 Number of electrons:     9    Spin symmetry=Doublet   Space symmetry=1
 Number of states:        2
 Number of CSFs:          2   (2 determinants, 5 intermediate states)

 State symmetry 2

 Number of electrons:     9    Spin symmetry=Doublet   Space symmetry=4
 Number of states:        1
 Number of CSFs:          1   (1 determinants, 5 intermediate states)

 State symmetry 3

 Number of electrons:     9    Spin symmetry=Doublet   Space symmetry=6
 Number of states:        1
 Number of CSFs:          1   (1 determinants, 5 intermediate states)

 State symmetry 4

 Number of electrons:     9    Spin symmetry=Doublet   Space symmetry=7
 Number of states:        1
 Number of CSFs:          1   (1 determinants, 5 intermediate states)

 Molecular orbitals read from record     4202.2  Type=RHF/CANONICAL (state 1.1)
 *** IN SYMMETRY 1 ORBITAL  1 SYMMETRY CONTAMINATION OF 0.225D-02 HAS BEEN REMOVED
 *** IN SYMMETRY 1 ORBITAL  2 SYMMETRY CONTAMINATION OF 0.145D-01 HAS BEEN REMOVED
 *** IN SYMMETRY 1 ORBITAL  3 SYMMETRY CONTAMINATION OF 0.412D-02 HAS BEEN REMOVED
 *** IN SYMMETRY 1 ORBITAL  4 SYMMETRY CONTAMINATION OF 0.140D+00 HAS BEEN REMOVED

 EXTRA SYMMETRY OF MOS IN SYMMETRY 1:   1 1 3 2 1 1 2 3 1 2   3 1 2 3 1 4 6 5 2 3   1 4 6 5 2 3 4 6 5 1   2 3 1 2 3 2 3 1 2 3
                                        1 2 3 1 2 3 1 1 2 3   1 1 2 3 1 2 3 1 1 2   3 1 2 3 1 1 2 3 1 1   1 1 1 1 1 1 1 1
 *** IN SYMMETRY 2 ORBITAL  1 SYMMETRY CONTAMINATION OF 0.578D-02 HAS BEEN REMOVED
 EXTRA SYMMETRY OF MOS IN SYMMETRY 2:   1 1 2 1 3 2 3 1 2 3   2 3 1 2 3 2 3 1 2 3   1 2 3 2 3 1 2 3 1 2   3 1 2 3 1 1 2 3 1 2
                                        3 1 2 3 1 1 2 3 1 2   3 1 1 1 1 1 1 1 1 1
 *** IN SYMMETRY 3 ORBITAL  1 SYMMETRY CONTAMINATION OF 0.578D-02 HAS BEEN REMOVED
 EXTRA SYMMETRY OF MOS IN SYMMETRY 3:   1 1 2 1 3 2 3 1 2 3   2 3 1 2 3 2 3 1 2 3   1 2 3 2 3 1 2 3 1 2   3 1 2 3 1 1 2 3 1 2
                                        3 1 2 3 1 1 2 3 1 2   3 1 1 1 1 1 1 1 1 1
 *** IN SYMMETRY 4 ORBITAL  1 SYMMETRY CONTAMINATION OF 0.405D-02 HAS BEEN REMOVED
 EXTRA SYMMETRY OF MOS IN SYMMETRY 4:   1 1 1 1 2 3 1 2 3 1   2 3 1 1 1 1 1 1 1 1   1 1 1 1
 *** IN SYMMETRY 5 ORBITAL  1 SYMMETRY CONTAMINATION OF 0.330D-02 HAS BEEN REMOVED
 EXTRA SYMMETRY OF MOS IN SYMMETRY 5:   1 1 1 2 3 2 3 1 2 3   2 3 1 2 3 2 3 1 2 3   1 2 3 2 3 1 2 3 1 2   3 1 2 3 1 1 2 3 1 2
                                        3 1 2 3 1 1 2 3 1 2   3 1 1 1 1 1 1 1 1 1
 *** IN SYMMETRY 6 ORBITAL  1 SYMMETRY CONTAMINATION OF 0.438D-02 HAS BEEN REMOVED
 EXTRA SYMMETRY OF MOS IN SYMMETRY 6:   1 1 1 1 2 3 1 2 3 1   2 3 1 1 1 1 1 1 1 1   1 1 1 1
 *** IN SYMMETRY 7 ORBITAL  1 SYMMETRY CONTAMINATION OF 0.438D-02 HAS BEEN REMOVED
 EXTRA SYMMETRY OF MOS IN SYMMETRY 7:   1 1 1 1 2 3 1 2 3 1   2 3 1 1 1 1 1 1 1 1   1 1 1 1

 Wavefunction dump at record             5202.2

 Convergence thresholds  0.10E-01 (gradient)  0.10E-05 (energy)  0.10E-02 (step length)

 Weight factors for state symmetry  1:    0.20000   0.20000
 Weight factors for state symmetry  2:    0.20000
 Weight factors for state symmetry  3:    0.20000
 Weight factors for state symmetry  4:    0.20000

 Number of orbital rotations:      546   (     4 Core/Active    325 Core/Virtual   0 Active/Active    217 Active/Virtual)
 Total number of variables:        553


 ITER. MIC  NCI  NEG     ENERGY(VAR)     ENERGY(PROJ)   ENERGY CHANGE     GRAD(0)  GRAD(ORB)   GRAD(CI)     STEP       TIME

   1   30   16    0    -118.40772754    -118.40870416   -0.00097662    0.04092858 0.00000000 0.00000000  0.32D-01      0.45
   2   27   20    0    -118.40870431    -118.40870441   -0.00000011    0.00028180 0.00000000 0.00000000  0.68D-03      0.84
   3   21   20    0    -118.40870441    -118.40870441   -0.00000000    0.00000007 0.00000000 0.00000000  0.15D-06      1.24

 ** WVFN ****  CONVERGENCE REACHED, FINAL GRADIENT:  0.89D-10



 Results for state 1.1
 =====================

 !MCSCF STATE 1.1 Energy             -118.408704414456
 Nuclear energy                         0.00000000
 Kinetic energy                        40.64152841
 One electron energy                 -212.87021146
 Two electron energy                   94.46150705
 Virial ratio                           3.91349044

 !MCSCF STATE 1.1 Dipole moment         0.00000000     0.00000000     0.00000000
 Dipole moment /Debye                   0.00000000     0.00000000     0.00000000

 Results for state 2.1
 =====================

 !MCSCF STATE 2.1 Energy             -118.408704414456
 Nuclear energy                         0.00000000
 Kinetic energy                        40.64152841
 One electron energy                 -212.87021146
 Two electron energy                   94.46150705
 Virial ratio                           3.91349044

 !MCSCF STATE 2.1 Dipole moment         0.00000000     0.00000000     0.00000000
 Dipole moment /Debye                   0.00000000     0.00000000     0.00000000



 Results for state 1.4
 =====================

 !MCSCF STATE 1.4 Energy             -118.408704414456
 Nuclear energy                         0.00000000
 Kinetic energy                        40.64152841
 One electron energy                 -212.87021146
 Two electron energy                   94.46150705
 Virial ratio                           3.91349044

 !MCSCF STATE 1.4 Dipole moment         0.00000000     0.00000000     0.00000000
 Dipole moment /Debye                   0.00000000     0.00000000     0.00000000



 Results for state 1.6
 =====================

 !MCSCF STATE 1.6 Energy             -118.408704414456
 Nuclear energy                         0.00000000
 Kinetic energy                        40.64152841
 One electron energy                 -212.87021146
 Two electron energy                   94.46150705
 Virial ratio                           3.91349044

 !MCSCF STATE 1.6 Dipole moment         0.00000000     0.00000000     0.00000000
 Dipole moment /Debye                   0.00000000     0.00000000     0.00000000



 Results for state 1.7
 =====================

 !MCSCF STATE 1.7 Energy             -118.408704414456
 Nuclear energy                         0.00000000
 Kinetic energy                        40.64152841
 One electron energy                 -212.87021146
 Two electron energy                   94.46150705
 Virial ratio                           3.91349044

 !MCSCF STATE 1.7 Dipole moment         0.00000000     0.00000000     0.00000000
 Dipole moment /Debye                   0.00000000     0.00000000     0.00000000

 State-averaged charge density matrix saved on record  5202.2 (density set 1)


 NATURAL ORBITALS (state averaged)
 =================================

   Orb     Occ        Energy       Coefficients

                                   1 1s      1 1s      1 1s      1 1s      1 1s      1 1s      1 1s      1 1s      1 1s      1 1s   
                                   1 1s      1 1s      1 1s      1 1s      1 1s      1 1s      1 1s      1 1s      1 1s      1 1s   
                                   1 1s      1 1s      1 1s      1 1s      1 1s      1 1s      1 1s      1 1s      1 1s      1 1s   
                                   1 1s      1 1s      1 1s      1 3d0     1 3d2+    1 3d0     1 3d2+    1 3d0     1 3d2+    1 3d0  
                                   1 3d2+    1 3d0     1 3d2+    1 3d0     1 3d2+    1 3d0     1 3d2+    1 3d0     1 3d2+    1 3d0  
                                   1 3d2+    1 3d0     1 3d2+    1 3d0     1 3d2+    1 3d0     1 3d2+    1 3d0     1 3d2+    1 3d0  
                                   1 3d2+    1 3d0     1 3d2+    1 3d0     1 3d2+    1 3d0     1 3d2+    1 3d0     1 3d2+    1 5g0  
                                   1 5g4+    1 5g2+    1 5g0     1 5g4+    1 5g2+    1 5g0     1 5g4+    1 5g2+ 

   1.1  2.00000    -4.205682    -0.000000  0.000000 -0.000000  0.000000 -0.000001  0.000002 -0.000004  0.000009 -0.000018  0.000037
                                -0.000078  0.000171 -0.000397  0.000975 -0.002500  0.006555 -0.016933  0.041269 -0.091194  0.179961
                                -0.314369  0.413580 -0.023584 -0.901020  0.204374  0.794238  0.465780  0.010487  0.031334 -0.026692
                                 0.007806 -0.002731  0.000777  0.000000  0.000000  0.000000  0.000000  0.000000  0.000000  0.000000
                                 0.000000  0.000000  0.000000  0.000000  0.000000  0.000000  0.000000  0.000000  0.000000  0.000000
                                 0.000000  0.000000  0.000000  0.000000  0.000000  0.000000  0.000000  0.000000  0.000000  0.000000
                                 0.000000  0.000000  0.000000  0.000000  0.000000  0.000000  0.000000  0.000000  0.000000  0.000000
                                 0.000000  0.000000  0.000000  0.000000  0.000000  0.000000  0.000000  0.000000

   2.1  2.00000    -0.041746     0.000000 -0.000000  0.000000 -0.000000  0.000000 -0.000000  0.000001 -0.000002  0.000005 -0.000009
                                 0.000020 -0.000043  0.000101 -0.000247  0.000634 -0.001663  0.004302 -0.010516  0.023353 -0.046493
                                 0.082490 -0.111559  0.010160  0.258318 -0.066274 -0.311784 -0.245722  0.119746  0.147522  0.249963
                                 0.394014  0.227057  0.092439  0.000000  0.000000  0.000000  0.000000  0.000000  0.000000  0.000000
                                 0.000000  0.000000  0.000000  0.000000  0.000000  0.000000  0.000000  0.000000  0.000000  0.000000
                                 0.000000  0.000000  0.000000  0.000000  0.000000  0.000000  0.000000  0.000000  0.000000  0.000000
                                 0.000000  0.000000  0.000000  0.000000  0.000000  0.000000  0.000000  0.000000  0.000000  0.000000
                                 0.000000  0.000000  0.000000  0.000000  0.000000  0.000000  0.000000  0.000000

   3.1  1.80000    -0.128924     0.000000  0.000000  0.000000  0.000000  0.000000  0.000000  0.000000  0.000000  0.000000  0.000000
                                 0.000000  0.000000  0.000000  0.000000  0.000000  0.000000  0.000000  0.000000  0.000000  0.000000
                                 0.000000  0.000000  0.000000  0.000000  0.000000  0.000000  0.000000  0.000000  0.000000  0.000000
                                 0.000000  0.000000  0.000000 -0.000000  0.000000  0.000000  0.000000 -0.000001  0.000000  0.000006
                                 0.000000 -0.000017  0.000000  0.000058  0.000000 -0.000109  0.000000  0.000307  0.000000 -0.000543
                                 0.000000  0.010671  0.000000 -0.084126  0.000000  0.085838  0.000000  0.306263  0.000000  0.160824
                                 0.000000  0.331355  0.000000  0.262153  0.000000  0.117460  0.000000  0.007816  0.000000  0.000000
                                 0.000000  0.000000  0.000000  0.000000  0.000000  0.000000  0.000000  0.000000

   4.1  1.80000    -0.128924     0.000000  0.000000  0.000000  0.000000  0.000000  0.000000  0.000000  0.000000  0.000000  0.000000
                                 0.000000  0.000000  0.000000  0.000000  0.000000  0.000000  0.000000  0.000000  0.000000  0.000000
                                 0.000000  0.000000  0.000000  0.000000  0.000000  0.000000  0.000000  0.000000  0.000000  0.000000
                                 0.000000  0.000000  0.000000  0.000000 -0.000000  0.000000  0.000000  0.000000 -0.000001  0.000000
                                 0.000006  0.000000 -0.000017  0.000000  0.000058  0.000000 -0.000109  0.000000  0.000307  0.000000
                                -0.000543  0.000000  0.010671  0.000000 -0.084126  0.000000  0.085838  0.000000  0.306263  0.000000
                                 0.160824  0.000000  0.331355  0.000000  0.262153  0.000000  0.117460  0.000000  0.007816  0.000000
                                 0.000000  0.000000  0.000000  0.000000  0.000000  0.000000  0.000000  0.000000

                                   1 2px     1 2px     1 2px     1 2px     1 2px     1 2px     1 2px     1 2px     1 2px     1 2px  
                                   1 2px     1 2px     1 2px     1 2px     1 2px     1 2px     1 2px     1 2px     1 2px     1 2px  
                                   1 2px     1 2px     1 2px     1 2px     1 2px     1 2px     1 4f1+    1 4f3+    1 4f1+    1 4f3+ 
                                   1 4f1+    1 4f3+    1 4f1+    1 4f3+    1 4f1+    1 4f3+    1 4f1+    1 4f3+    1 4f1+    1 4f3+ 
                                   1 4f1+    1 4f3+    1 4f1+    1 4f3+    1 4f1+    1 4f3+    1 4f1+    1 4f3+    1 4f1+    1 4f3+ 
[...]
                                   1 4f0     1 4f2+    1 4f0     1 4f2+    1 4f0     1 4f2+    1 4f0     1 4f2+    1 4f0     1 4f2+ 


   1.5  2.00000    -7.633434     0.000000 -0.000000  0.000000 -0.000000  0.000000 -0.000000  0.000001 -0.000005  0.000015 -0.000045
                                 0.000140 -0.000450  0.001927 -0.007231  0.014181 -0.013751 -0.001027  0.107706 -0.352074 -0.034055
                                 0.703480  0.468339  0.016130  0.000707 -0.000503  0.000169  0.000000  0.000000  0.000000  0.000000
                                 0.000000  0.000000  0.000000  0.000000  0.000000  0.000000  0.000000  0.000000  0.000000  0.000000
                                 0.000000  0.000000  0.000000  0.000000  0.000000  0.000000  0.000000  0.000000  0.000000  0.000000
                                 0.000000  0.000000  0.000000  0.000000  0.000000  0.000000  0.000000  0.000000  0.000000  0.000000

   2.5  0.14286    -2.720156     0.000000  0.000000  0.000000  0.000000  0.000000  0.000000  0.000000  0.000000  0.000000  0.000000
                                 0.000000  0.000000  0.000000  0.000000  0.000000  0.000000  0.000000  0.000000  0.000000  0.000000
                                 0.000000  0.000000  0.000000  0.000000  0.000000  0.000000 -0.000004  0.000000  0.000071  0.000000
                                -0.000235  0.000000  0.000326  0.000000 -0.000456  0.000000  0.001198  0.000000 -0.002054  0.000000
                                 0.007841  0.000000 -0.008423  0.000000  0.054614  0.000000  0.223295  0.000000  0.352718  0.000000
                                 0.451078  0.000000  0.049588  0.000000  0.036726  0.000000 -0.018402  0.000000  0.008662  0.000000

   3.5  0.14286    -2.720156     0.000000  0.000000  0.000000  0.000000  0.000000  0.000000  0.000000  0.000000  0.000000  0.000000
                                 0.000000  0.000000  0.000000  0.000000  0.000000  0.000000  0.000000  0.000000  0.000000  0.000000
                                 0.000000  0.000000  0.000000  0.000000  0.000000  0.000000  0.000000 -0.000004  0.000000  0.000071
                                 0.000000 -0.000235  0.000000  0.000326  0.000000 -0.000456  0.000000  0.001198  0.000000 -0.002054
                                 0.000000  0.007841  0.000000 -0.008423  0.000000  0.054614  0.000000  0.223295  0.000000  0.352718
                                 0.000000  0.451078  0.000000  0.049588  0.000000  0.036726  0.000000 -0.018402  0.000000  0.008662

                                   1 4f2-    1 4f2-    1 4f2-    1 4f2-    1 4f2-    1 4f2-    1 4f2-    1 4f2-    1 4f2-    1 4f2- 
                                   1 4f2-    1 4f2-    1 4f2-    1 4f2-    1 4f2-    1 4f2-    1 4f2- 

   1.8  0.14286    -2.720156    -0.000004  0.000071 -0.000235  0.000326 -0.000456  0.001198 -0.002054  0.007841 -0.008423  0.054614
                                 0.223295  0.352718  0.451078  0.049588  0.036726 -0.018402  0.008662

 Total charge:   9.000000000000
 

 EXTRA SYMMETRY OF MOS IN SYMMETRY 1:   1 3 2 1 2 3 1 5 6 4   2 3 1 3 2 1 1 2 3 1   1 6 4 5 3 2 6 5 4 1   2 3 1 3 2 3 2 1 3 2
                                        1 3 2 1 2 3 1 1 3 2   1 1 3 2 1 3 2 1 1 3   2 1 3 2 1 1 2 3 1 1   1 1 1 1 1 1 1 1
 EXTRA SYMMETRY OF MOS IN SYMMETRY 2:   1 3 2 1 1 3 2 1 2 3   2 3 1 3 2 1 2 3 2 3   1 2 3 2 3 1 2 3 1 2   3 1 3 2 1 1 3 2 1 3
                                        2 1 3 2 1 1 2 3 1 2   3 1 1 1 1 1 1 1 1 1
 EXTRA SYMMETRY OF MOS IN SYMMETRY 3:   1 3 2 1 1 2 3 1 2 3   3 2 1 3 2 1 2 3 2 3   1 2 3 2 3 1 2 3 1 2   3 1 2 3 1 1 3 2 1 3
                                        2 1 3 2 1 1 2 3 1 2   3 1 1 1 1 1 1 1 1 1
 EXTRA SYMMETRY OF MOS IN SYMMETRY 5:   1 2 3 1 1 3 2 1 3 2   3 2 1 2 3 1 2 3 3 2   1 3 2 2 3 1 2 3 1 2   3 1 2 3 1 1 2 3 1 2
                                        3 1 2 3 1 1 2 3 1 2   3 1 1 1 1 1 1 1 1 1
 EXTRA SYMMETRY OF MOS IN SYMMETRY 6:   1 1 3 2 1 1 1 3 2 1   3 2 1 1 1 1 1 1 1 1   1 1 1 1
 EXTRA SYMMETRY OF MOS IN SYMMETRY 7:   1 1 3 2 1 1 1 3 2 1   3 2 1 1 1 1 1 1 1 1   1 1 1 1

 Natural orbital dump (state averaged) at molpro section  5202.2    (Orbital set 2)


 CI vector for state symmetry 1
 ==============================

 0a 00 00 0          0.9640084   0.2658719
 a0 00 00 0         -0.2658719   0.9640084

 TOTAL ENERGIES                       -95.95196743   -95.95196743

 CI vector for state symmetry 2
 ==============================

 00 0a 00 0          0.9641125  -0.2654941
 00 a0 00 0          0.2654941   0.9641125

 TOTAL ENERGIES                       -95.95196743   -95.95196743

 CI vector for state symmetry 3
 ==============================

 00 00 0a 0          1.0000000   0.0000000
 00 00 a0 0          0.0000000   1.0000000

 TOTAL ENERGIES                       -95.95196743   -95.95196743

 CI vector for state symmetry 4
 ==============================

 00 00 00 a          1.0000000

 TOTAL ENERGIES                       -95.95196743



 **********************************************************************************************************************************
 DATASETS  * FILE   NREC   LENGTH (MB)   RECORD NAMES
              1      20       46.45       500      610      700      900      950      970     1000      129      960     1100   
                                          VAR    BASINP    GEOM    SYMINP    ZMAT    AOBASIS   BASIS     P2S    ABASIS      S 
                                         1400     1410     1420     1200     1210     1080     1600     1650     1700     1380   
                                           T        V       ECP      H0       H01     AOSYM     SMH    MOLCAS    OPER     JKOP   

              2      19       48.91       200      700     1000      520     4202     5202     2102     2105     5202(1)  2107   
                                        OPTIONS   GEOM     BASIS   MCVARS     RHF     MCSCF     RHF      RHF     MCSCF     RHF  
                                         2109     2111     2113     2115     2117     2119     2120     2121     2123   
                                          RHF      RHF      RHF      RHF      RHF      RHF      RHF      RHF      RHF  

 PROGRAMS   *        TOTAL     MULTI       POP       RHF  RCCSD(T)       RHF     MULTI       POP       RHF  RCCSD(T)       RHF
 CPU TIMES  *       469.68      1.20      0.00      1.04     23.76      0.10      3.75      0.00      1.23      1.08      0.92
 REAL TIME  *       680.01 SEC
 DISK USED  *         6.02 GB      
 SF USED    *         1.40 GB      
 GA USED    *         0.00 MB       (max)       0.00 MB       (current)
 **********************************************************************************************************************************


 PROGRAM * RHF-SCF (OPEN SHELL)       Authors: W. Meyer, H.-J. Werner


 NUMBER OF ELECTRONS:       5+    4-    SPACE SYMMETRY=8    SPIN SYMMETRY: Doublet 
 CONVERGENCE THRESHOLDS:    1.00E-05 (Density)    1.00E-07 (Energy)
 MAX. NUMBER OF ITERATIONS:        0
 INTERPOLATION TYPE:            DIIS
 INTERPOLATION STEPS:              2 (START)      1 (STEP)
 LEVEL SHIFTS:                 -0.60 (CLOSED) -0.30 (OPEN) 

 Number of closed-shell orbitals:    4 (   1   1   1   0   1   0   0   0 )
 Number of open-shell orbitals:      1 (   0   0   0   0   0   0   0   1 )


 Molecular orbitals read from record     5202.2  Type=MCSCF/NATURAL (state averaged)

 Molecular orbital dump at record        2127.2

 ITERATION    DDIFF          GRAD             ENERGY        2-EL.EN.            DIPOLE MOMENTS         DIIS   ORB.
    1      0.000D+00      0.000D+00       -95.95196743     54.888539    0.00000    0.00000    0.00000    0    start

 Final alpha occupancy:   1   1   1   0   1   0   0   1
 Final beta  occupancy:   1   1   1   0   1   0   0   0

 !RHF STATE 1.8 Energy                -95.951967428239
 Nuclear energy                         0.00000000
 One-electron energy                 -123.39623701
 Two-electron energy                   27.44426958
 Virial quotient                       -3.67828963
 !RHF STATE 1.8 Dipole moment           0.00000000     0.00000000     0.00000000
 Dipole moment /Debye                   0.00000000     0.00000000     0.00000000

 Orbital energies:

         1.1          2.1          3.1
     -9.762325    -4.680237    -4.680237

         1.2          2.2          3.2
     -7.633434    -2.720156    -2.720156

         1.3          2.3          3.3
     -7.633434    -2.720156    -2.720156

         1.4          2.4
     -4.680237    -2.403818

         1.5          2.5          3.5
     -7.633434    -2.720156    -2.720156

         1.6          2.6
     -4.680237    -2.403818

         1.7          2.7
     -4.680237    -2.403818

         1.8          2.8          3.8
     -2.720156    -1.681932    -1.153438

 HOMO      1.8    -2.720156 =     -74.0192eV
 LUMO      2.1    -4.680237 =    -127.3557eV
 LUMO-HOMO        -1.960081 =     -53.3365eV


 **********************************************************************************************************************************
 DATASETS  * FILE   NREC   LENGTH (MB)   RECORD NAMES
              1      20       46.45       500      610      700      900      950      970     1000      129      960     1100   
                                          VAR    BASINP    GEOM    SYMINP    ZMAT    AOBASIS   BASIS     P2S    ABASIS      S 
                                         1400     1410     1420     1200     1210     1080     1600     1650     1700     1380   
                                           T        V       ECP      H0       H01     AOSYM     SMH    MOLCAS    OPER     JKOP   

              2      20       52.17       200      700     1000      520     4202     5202     2102     2105     5202(1)  2107   
                                        OPTIONS   GEOM     BASIS   MCVARS     RHF     MCSCF     RHF      RHF     MCSCF     RHF  
                                         2109     2111     2113     2115     2117     2119     2120     2121     2123     2127   
                                          RHF      RHF      RHF      RHF      RHF      RHF      RHF      RHF      RHF      RHF  

 PROGRAMS   *        TOTAL       RHF     MULTI       POP       RHF  RCCSD(T)       RHF     MULTI       POP       RHF  RCCSD(T)
 CPU TIMES  *       469.78      0.10      1.20      0.00      1.04     23.76      0.10      3.75      0.00      1.23      1.08
 REAL TIME  *       680.17 SEC
 DISK USED  *         6.02 GB      
 SF USED    *         1.40 GB      
 GA USED    *         0.00 MB       (max)       0.00 MB       (current)
 **********************************************************************************************************************************
 SETTING SCF(15)        =       -95.95196743  AU                              
 SETTING _CC_NORM_MAX   =         2.00000000                                  


 PROGRAM * CCSD (Restricted open-shell coupled cluster)     Authors: C. Hampel, H.-J. Werner, 1991, M. Deegan, P.J. Knowles, 1992


 Convergence thresholds:  THRVAR = 1.00D-08  THRDEN = 1.00D-06

 CCSD(T)     terms to be evaluated (factor= 1.000)


 Number of closed-shell orbitals:   4 (   1   1   1   0   1   0   0   0 )
 Number of active  orbitals:        1 (   0   0   0   0   0   0   0   1 )
 Number of external orbitals:     342 (  77  59  59  24  59  24  24  16 )

 Memory could be reduced to 61.86 Mwords without degradation in triples

 Number of N-1 electron functions:               9
 Number of N-2 electron functions:              36
 Number of singly external CSFs:               525
 Number of doubly external CSFs:            416837
 Total number of CSFs:                      417362

 Molecular orbitals read from record     2127.2  Type=RHF/CANONICAL (state 1.8)

 Integral transformation finished. Total CPU:   1.10 sec, npass=  1  Memory used:   8.91 MW

 Starting RMP2 calculation

 Wavefunction is spin-projected

 ITER.      SQ.NORM     CORR.ENERGY   TOTAL ENERGY   ENERGY CHANGE        DEN1      VAR(S)    VAR(P)  DIIS     TIME
   1      1.06344616    -0.32138267   -96.27335009    -0.32138267    -0.00090266  0.28D-07  0.45D-03  1  1     1.13
   2      1.06451645    -0.32236103   -96.27432845    -0.00097836    -0.00000245  0.60D-10  0.13D-05  2  2     1.16
   3      1.06457093    -0.32239685   -96.27436428    -0.00003583    -0.00000000  0.30D-13  0.72D-10  3  3     1.20
   4      1.06457113    -0.32239695   -96.27436438    -0.00000010    -0.00000000  0.29D-17  0.13D-12  4  4     1.23

 Norm of t1 vector:      0.00640919      S-energy:    -0.00024054      T1 diagnostic:  0.00031363
 Norm of t2 vector:      0.25402767      P-energy:    -0.32215641
                                         Alpha-Beta:  -0.24557994
                                         Alpha-Alpha: -0.04944567
                                         Beta-Beta:   -0.02713080

 Spin contamination <S**2-Sz**2-Sz>     0.00000000
  Reference energy                    -95.951967428239
  RHF-RMP2 correlation energy          -0.322396953931
 !RHF-RMP2 energy                     -96.274364382171
 (NB above energy spin projected)

 Starting RCCSD calculation

 ITER.      SQ.NORM     CORR.ENERGY   TOTAL ENERGY   ENERGY CHANGE        DEN1      VAR(S)    VAR(P)  DIIS     TIME
   1      1.08414532    -0.33584294   -96.28781036    -0.33584294    -0.01262625  0.46D-03  0.57D-02  1  1     1.69
   2      1.11677575    -0.35054935   -96.30251678    -0.01470642    -0.00376918  0.78D-04  0.21D-02  2  2     2.16
   3      1.16361252    -0.36309028   -96.31505770    -0.01254092    -0.00073550  0.97D-06  0.42D-03  3  3     2.63
   4      1.18291865    -0.36655811   -96.31852554    -0.00346784    -0.00020841  0.53D-06  0.12D-03  4  4     3.09
   5      1.19958086    -0.36893572   -96.32090315    -0.00237761    -0.00000627  0.75D-07  0.23D-05  5  5     3.57
   6      1.20126787    -0.36915607   -96.32112350    -0.00022035    -0.00000076  0.68D-08  0.41D-06  6  6     4.03
   7      1.20125901    -0.36915279   -96.32112022     0.00000328    -0.00000031  0.80D-10  0.18D-06  6  3     4.50
   8      1.20133114    -0.36916255   -96.32112998    -0.00000976    -0.00000002  0.29D-09  0.10D-07  6  1     4.96
   9      1.20134186    -0.36916303   -96.32113046    -0.00000049    -0.00000000  0.12D-11  0.40D-09  6  2     5.44

 Norm of t1 vector:      0.05423936      S-energy:    -0.00013514      T1 diagnostic:  0.01275856
                                                                       D1 diagnostic:  0.03816845
 Norm of t2 vector:      0.44542110      P-energy:    -0.36902790
                                         Alpha-Beta:  -0.30032831
                                         Alpha-Alpha: -0.04438671
                                         Beta-Beta:   -0.02431288

 Doubles amplitudes (print threshold =  0.500E-01):

         I         J         SYM. A    SYM. B    A         B      T(IJ, AB) [Alpha-Beta]

         5         4         6         7         1         1     -0.16142087
         5         4         7         6         1         1     -0.16142087
         5         3         4         7         1         1     -0.16142086
         5         3         7         4         1         1     -0.16142086
         5         2         4         6         1         1     -0.16142086
         5         2         6         4         1         1     -0.16142086

 Spin contamination <S**2-Sz**2-Sz>     0.00000000

 Memory could be reduced to 60.68 Mwords without degradation in triples
 

  Correlated core orbitals:             1.1       1.2       1.3       1.5
  Orbital energies:                    -9.7717   -7.6466   -7.6466   -7.6466
 
  RCCSD core-core energy               -0.243426588263
  RCCSD core-valence energy            -0.125736445694
  RCCSD valence correlation energy      0.000000000010
 

 RESULTS
 =======

  Reference energy                    -95.951967428239
  RCCSD singles energy                 -0.000135135278
  RCCSD pair energy                    -0.369027898668
  RCCSD correlation energy             -0.369163033946
  Triples (T) contribution             -0.022459610450
  Total correlation energy             -0.391622644397
 
  RHF-RCCSD energy                    -96.321130462186
  RHF-RCCSD[T] energy                 -96.343854841258
  RHF-RCCSD-T energy                  -96.343535473574
 !RHF-RCCSD(T) energy                 -96.343590072636

 Program statistics:

 Available memory in ccsd:              1023999650
 Min. memory needed in ccsd:               1619495
 Max. memory used in ccsd:                 2071732
 Max. memory used in cckext:               1969854 ( 9 integral passes)
 Max. memory used in cckint:               8905245 ( 1 integral passes)



 **********************************************************************************************************************************
 DATASETS  * FILE   NREC   LENGTH (MB)   RECORD NAMES
              1      20       46.45       500      610      700      900      950      970     1000      129      960     1100   
                                          VAR    BASINP    GEOM    SYMINP    ZMAT    AOBASIS   BASIS     P2S    ABASIS      S 
                                         1400     1410     1420     1200     1210     1080     1600     1650     1700     1380   
                                           T        V       ECP      H0       H01     AOSYM     SMH    MOLCAS    OPER     JKOP   

              2      20       52.17       200      700     1000      520     4202     5202     2102     2105     5202(1)  2107   
                                        OPTIONS   GEOM     BASIS   MCVARS     RHF     MCSCF     RHF      RHF     MCSCF     RHF  
                                         2109     2111     2113     2115     2117     2119     2120     2121     2123     2127   
                                          RHF      RHF      RHF      RHF      RHF      RHF      RHF      RHF      RHF      RHF  

 PROGRAMS   *        TOTAL  RCCSD(T)       RHF     MULTI       POP       RHF  RCCSD(T)       RHF     MULTI       POP       RHF
 CPU TIMES  *       479.83     10.05      0.10      1.20      0.00      1.04     23.76      0.10      3.75      0.00      1.23
 REAL TIME  *       697.36 SEC
 DISK USED  *         6.02 GB      
 SF USED    *         1.40 GB      
 GA USED    *         0.00 MB       (max)       0.00 MB       (current)
 **********************************************************************************************************************************
 SETTING CCSD(15)       =       -96.34359007  AU                              
 Output type csv         
                                                                                                                                                                                                                                                                

        SCF,CCSD
   -118.36191934,   -119.04573142
   -118.40870441,   -119.13891117
   -118.39313643,   -119.06219544
   -118.37780469,   -119.04898159
   -118.11132369,   -118.73191014
   -118.10186872,   -118.70425021
   -117.49096571,   -118.04475355
   -116.41762197,   -116.91636481
   -114.85088270,   -115.30138989
   -112.79947976,   -113.19412227
    -92.77158820,    -93.03153823
    -65.96502080,    -66.08832696
    -31.29732695,    -31.34700250
   -113.69195643,   -114.11344589
    -95.95196743,    -96.34359007
                                                  

 RCCSD(T)/USERDEF energy=    -96.343590072636

        RCCSD(T)        MULTI           RHF-SCF         RCCSD(T)        RHF-SCF         MULTI           RHF-SCF         RCCSD(T)
    -96.34359007    -95.95196743    -95.95198212   -114.11344589   -113.69195643   -113.69802149   -113.69328713    -31.34700250
 **********************************************************************************************************************************
 Molpro calculation terminated
 Variable memory released
