/global/cscratch1/sd/bkincaid/Ir/250-610/runs/scf_500

     Program PWSCF v.6.4.1 starts on 17Jan2022 at 13:53:28 

     This program is part of the open-source Quantum ESPRESSO suite
     for quantum simulation of materials; please cite
         "P. Giannozzi et al., J. Phys.:Condens. Matter 21 395502 (2009);
         "P. Giannozzi et al., J. Phys.:Condens. Matter 29 465901 (2017);
          URL http://www.quantum-espresso.org", 
     in publications or presentations arising from this work. More details at
     http://www.quantum-espresso.org/quote

     Parallel version (MPI & OpenMP), running on      32 processor cores
     Number of MPI processes:                32
     Threads/MPI process:                     1

     MPI processes distributed on     1 nodes
     R & G space division:  proc/nbgrp/npool/nimage =      32
     Reading input from scf_500.in

     Current dimensions of program PWSCF are:
     Max number of different atomic species (ntypx) = 10
     Max number of k-points (npk) =  40000
     Max angular momentum in pseudopotentials (lmaxx) =  3

     IMPORTANT: XC functional enforced from input :
     Exchange-correlation      = PBE ( 1  4  3  4 0 0)
     Any further DFT definition will be discarded
     Please, verify this is what you really want


     gamma-point specific algorithms are used
     Message from routine setup:
     the system is metallic, specify occupations

     Subspace diagonalization in iterative solution of the eigenvalue problem:
     one sub-group per band group will be used
     scalapack distributed-memory algorithm (size of sub-group:  4*  4 procs)

     Message from routine setup:
     DEPRECATED: symmetry with ibrav=0, use correct ibrav instead
 
     Parallelization info
     --------------------
     sticks:   dense  smooth     PW     G-vecs:    dense   smooth      PW
     Min        2557    2557    638               550426   550426   68790
     Max        2560    2560    640               550434   550434   68800
     Sum       81861   81861  20461             17613727 17613727 2201421
 


     bravais-lattice index     =            0
     lattice parameter (alat)  =      22.6767  a.u.
     unit-cell volume          =   11661.1222 (a.u.)^3
     number of atoms/cell      =            1
     number of atomic types    =            1
     number of electrons       =        17.00 (up:  10.00, down:   7.00)
     number of Kohn-Sham states=           12
     kinetic-energy cutoff     =     500.0000  Ry
     charge density cutoff     =    2000.0000  Ry
     convergence threshold     =      1.0E-06
     mixing beta               =       0.7000
     number of iterations used =            8  plain     mixing
     Exchange-correlation      = PBE ( 1  4  3  4 0 0)

     celldm(1)=  22.676714  celldm(2)=   0.000000  celldm(3)=   0.000000
     celldm(4)=   0.000000  celldm(5)=   0.000000  celldm(6)=   0.000000

     crystal axes: (cart. coord. in units of alat)
               a(1) = (   1.000000   0.000000   0.000000 )  
               a(2) = (   0.000000   1.000000   0.000000 )  
               a(3) = (   0.000000   0.000000   1.000000 )  

     reciprocal axes: (cart. coord. in units 2 pi/alat)
               b(1) = (  1.000000  0.000000  0.000000 )  
               b(2) = (  0.000000  1.000000  0.000000 )  
               b(3) = (  0.000000  0.000000  1.000000 )  


     PseudoPot. # 1 for Ir read from file:
     ./Ir.upf
     MD5 check sum: 4ec64f0b3ebe11de5a1e063b7aff0c74
     Pseudo is Norm-conserving, Zval = 17.0
     Generated by new atomic code, or converted to UPF format
     Using radial grid of 1188 points,  3 beta functions with: 
                l(1) =   1
                l(2) =   2
                l(3) =   3

     atomic species   valence    mass     pseudopotential
        Ir            17.00   192.20000     Ir( 1.00)

     Starting magnetic structure 
     atomic species   magnetization
        Ir           0.500

     48 Sym. Ops., with inversion, found


                                    s                        frac. trans.

      isym =  1     identity                                     

 cryst.   s( 1) = (     1          0          0      )
                  (     0          1          0      )
                  (     0          0          1      )

 cart.    s( 1) = (  1.0000000  0.0000000  0.0000000 )
                  (  0.0000000  1.0000000  0.0000000 )
                  (  0.0000000  0.0000000  1.0000000 )


      isym =  2     180 deg rotation - cart. axis [0,0,1]        

 cryst.   s( 2) = (    -1          0          0      )
                  (     0         -1          0      )
                  (     0          0          1      )

 cart.    s( 2) = ( -1.0000000  0.0000000  0.0000000 )
                  (  0.0000000 -1.0000000  0.0000000 )
                  (  0.0000000  0.0000000  1.0000000 )


      isym =  3     180 deg rotation - cart. axis [0,1,0]        

 cryst.   s( 3) = (    -1          0          0      )
                  (     0          1          0      )
                  (     0          0         -1      )

 cart.    s( 3) = ( -1.0000000  0.0000000  0.0000000 )
                  (  0.0000000  1.0000000  0.0000000 )
                  (  0.0000000  0.0000000 -1.0000000 )


      isym =  4     180 deg rotation - cart. axis [1,0,0]        

 cryst.   s( 4) = (     1          0          0      )
                  (     0         -1          0      )
                  (     0          0         -1      )

 cart.    s( 4) = (  1.0000000  0.0000000  0.0000000 )
                  (  0.0000000 -1.0000000  0.0000000 )
                  (  0.0000000  0.0000000 -1.0000000 )


      isym =  5     180 deg rotation - cart. axis [1,1,0]        

 cryst.   s( 5) = (     0          1          0      )
                  (     1          0          0      )
                  (     0          0         -1      )

 cart.    s( 5) = (  0.0000000  1.0000000  0.0000000 )
                  (  1.0000000  0.0000000  0.0000000 )
                  (  0.0000000  0.0000000 -1.0000000 )


      isym =  6     180 deg rotation - cart. axis [1,-1,0]       

 cryst.   s( 6) = (     0         -1          0      )
                  (    -1          0          0      )
                  (     0          0         -1      )

 cart.    s( 6) = (  0.0000000 -1.0000000  0.0000000 )
                  ( -1.0000000  0.0000000  0.0000000 )
                  (  0.0000000  0.0000000 -1.0000000 )


      isym =  7      90 deg rotation - cart. axis [0,0,-1]       

 cryst.   s( 7) = (     0         -1          0      )
                  (     1          0          0      )
                  (     0          0          1      )

 cart.    s( 7) = (  0.0000000  1.0000000  0.0000000 )
                  ( -1.0000000  0.0000000  0.0000000 )
                  (  0.0000000  0.0000000  1.0000000 )


      isym =  8      90 deg rotation - cart. axis [0,0,1]        

 cryst.   s( 8) = (     0          1          0      )
                  (    -1          0          0      )
                  (     0          0          1      )

 cart.    s( 8) = (  0.0000000 -1.0000000  0.0000000 )
                  (  1.0000000  0.0000000  0.0000000 )
                  (  0.0000000  0.0000000  1.0000000 )


      isym =  9     180 deg rotation - cart. axis [1,0,1]        

 cryst.   s( 9) = (     0          0          1      )
                  (     0         -1          0      )
                  (     1          0          0      )

 cart.    s( 9) = (  0.0000000  0.0000000  1.0000000 )
                  (  0.0000000 -1.0000000  0.0000000 )
                  (  1.0000000  0.0000000  0.0000000 )


      isym = 10     180 deg rotation - cart. axis [-1,0,1]       

 cryst.   s(10) = (     0          0         -1      )
                  (     0         -1          0      )
                  (    -1          0          0      )

 cart.    s(10) = (  0.0000000  0.0000000 -1.0000000 )
                  (  0.0000000 -1.0000000  0.0000000 )
                  ( -1.0000000  0.0000000  0.0000000 )


      isym = 11      90 deg rotation - cart. axis [0,1,0]        

 cryst.   s(11) = (     0          0         -1      )
                  (     0          1          0      )
                  (     1          0          0      )

 cart.    s(11) = (  0.0000000  0.0000000  1.0000000 )
                  (  0.0000000  1.0000000  0.0000000 )
                  ( -1.0000000  0.0000000  0.0000000 )


      isym = 12      90 deg rotation - cart. axis [0,-1,0]       

 cryst.   s(12) = (     0          0          1      )
                  (     0          1          0      )
                  (    -1          0          0      )

 cart.    s(12) = (  0.0000000  0.0000000 -1.0000000 )
                  (  0.0000000  1.0000000  0.0000000 )
                  (  1.0000000  0.0000000  0.0000000 )


      isym = 13     180 deg rotation - cart. axis [0,1,1]        

 cryst.   s(13) = (    -1          0          0      )
                  (     0          0          1      )
                  (     0          1          0      )

 cart.    s(13) = ( -1.0000000  0.0000000  0.0000000 )
                  (  0.0000000  0.0000000  1.0000000 )
                  (  0.0000000  1.0000000  0.0000000 )


      isym = 14     180 deg rotation - cart. axis [0,1,-1]       

 cryst.   s(14) = (    -1          0          0      )
                  (     0          0         -1      )
                  (     0         -1          0      )

 cart.    s(14) = ( -1.0000000  0.0000000  0.0000000 )
                  (  0.0000000  0.0000000 -1.0000000 )
                  (  0.0000000 -1.0000000  0.0000000 )


      isym = 15      90 deg rotation - cart. axis [-1,0,0]       

 cryst.   s(15) = (     1          0          0      )
                  (     0          0         -1      )
                  (     0          1          0      )

 cart.    s(15) = (  1.0000000  0.0000000  0.0000000 )
                  (  0.0000000  0.0000000  1.0000000 )
                  (  0.0000000 -1.0000000  0.0000000 )


      isym = 16      90 deg rotation - cart. axis [1,0,0]        

 cryst.   s(16) = (     1          0          0      )
                  (     0          0          1      )
                  (     0         -1          0      )

 cart.    s(16) = (  1.0000000  0.0000000  0.0000000 )
                  (  0.0000000  0.0000000 -1.0000000 )
                  (  0.0000000  1.0000000  0.0000000 )


      isym = 17     120 deg rotation - cart. axis [-1,-1,-1]     

 cryst.   s(17) = (     0          0          1      )
                  (     1          0          0      )
                  (     0          1          0      )

 cart.    s(17) = (  0.0000000  1.0000000  0.0000000 )
                  (  0.0000000  0.0000000  1.0000000 )
                  (  1.0000000  0.0000000  0.0000000 )


      isym = 18     120 deg rotation - cart. axis [-1,1,1]       

 cryst.   s(18) = (     0          0         -1      )
                  (    -1          0          0      )
                  (     0          1          0      )

 cart.    s(18) = (  0.0000000 -1.0000000  0.0000000 )
                  (  0.0000000  0.0000000  1.0000000 )
                  ( -1.0000000  0.0000000  0.0000000 )


      isym = 19     120 deg rotation - cart. axis [1,1,-1]       

 cryst.   s(19) = (     0          0         -1      )
                  (     1          0          0      )
                  (     0         -1          0      )

 cart.    s(19) = (  0.0000000  1.0000000  0.0000000 )
                  (  0.0000000  0.0000000 -1.0000000 )
                  ( -1.0000000  0.0000000  0.0000000 )


      isym = 20     120 deg rotation - cart. axis [1,-1,1]       

 cryst.   s(20) = (     0          0          1      )
                  (    -1          0          0      )
                  (     0         -1          0      )

 cart.    s(20) = (  0.0000000 -1.0000000  0.0000000 )
                  (  0.0000000  0.0000000 -1.0000000 )
                  (  1.0000000  0.0000000  0.0000000 )


      isym = 21     120 deg rotation - cart. axis [1,1,1]        

 cryst.   s(21) = (     0          1          0      )
                  (     0          0          1      )
                  (     1          0          0      )

 cart.    s(21) = (  0.0000000  0.0000000  1.0000000 )
                  (  1.0000000  0.0000000  0.0000000 )
                  (  0.0000000  1.0000000  0.0000000 )


      isym = 22     120 deg rotation - cart. axis [-1,1,-1]      

 cryst.   s(22) = (     0         -1          0      )
                  (     0          0         -1      )
                  (     1          0          0      )

 cart.    s(22) = (  0.0000000  0.0000000  1.0000000 )
                  ( -1.0000000  0.0000000  0.0000000 )
                  (  0.0000000 -1.0000000  0.0000000 )


      isym = 23     120 deg rotation - cart. axis [1,-1,-1]      

 cryst.   s(23) = (     0         -1          0      )
                  (     0          0          1      )
                  (    -1          0          0      )

 cart.    s(23) = (  0.0000000  0.0000000 -1.0000000 )
                  ( -1.0000000  0.0000000  0.0000000 )
                  (  0.0000000  1.0000000  0.0000000 )


      isym = 24     120 deg rotation - cart. axis [-1,-1,1]      

 cryst.   s(24) = (     0          1          0      )
                  (     0          0         -1      )
                  (    -1          0          0      )

 cart.    s(24) = (  0.0000000  0.0000000 -1.0000000 )
                  (  1.0000000  0.0000000  0.0000000 )
                  (  0.0000000 -1.0000000  0.0000000 )


      isym = 25     inversion                                    

 cryst.   s(25) = (    -1          0          0      )
                  (     0         -1          0      )
                  (     0          0         -1      )

 cart.    s(25) = ( -1.0000000  0.0000000  0.0000000 )
                  (  0.0000000 -1.0000000  0.0000000 )
                  (  0.0000000  0.0000000 -1.0000000 )


      isym = 26     inv. 180 deg rotation - cart. axis [0,0,1]   

 cryst.   s(26) = (     1          0          0      )
                  (     0          1          0      )
                  (     0          0         -1      )

 cart.    s(26) = (  1.0000000  0.0000000  0.0000000 )
                  (  0.0000000  1.0000000  0.0000000 )
                  (  0.0000000  0.0000000 -1.0000000 )


      isym = 27     inv. 180 deg rotation - cart. axis [0,1,0]   

 cryst.   s(27) = (     1          0          0      )
                  (     0         -1          0      )
                  (     0          0          1      )

 cart.    s(27) = (  1.0000000  0.0000000  0.0000000 )
                  (  0.0000000 -1.0000000  0.0000000 )
                  (  0.0000000  0.0000000  1.0000000 )


      isym = 28     inv. 180 deg rotation - cart. axis [1,0,0]   

 cryst.   s(28) = (    -1          0          0      )
                  (     0          1          0      )
                  (     0          0          1      )

 cart.    s(28) = ( -1.0000000  0.0000000  0.0000000 )
                  (  0.0000000  1.0000000  0.0000000 )
                  (  0.0000000  0.0000000  1.0000000 )


      isym = 29     inv. 180 deg rotation - cart. axis [1,1,0]   

 cryst.   s(29) = (     0         -1          0      )
                  (    -1          0          0      )
                  (     0          0          1      )

 cart.    s(29) = (  0.0000000 -1.0000000  0.0000000 )
                  ( -1.0000000  0.0000000  0.0000000 )
                  (  0.0000000  0.0000000  1.0000000 )


      isym = 30     inv. 180 deg rotation - cart. axis [1,-1,0]  

 cryst.   s(30) = (     0          1          0      )
                  (     1          0          0      )
                  (     0          0          1      )

 cart.    s(30) = (  0.0000000  1.0000000  0.0000000 )
                  (  1.0000000  0.0000000  0.0000000 )
                  (  0.0000000  0.0000000  1.0000000 )


      isym = 31     inv.  90 deg rotation - cart. axis [0,0,-1]  

 cryst.   s(31) = (     0          1          0      )
                  (    -1          0          0      )
                  (     0          0         -1      )

 cart.    s(31) = (  0.0000000 -1.0000000  0.0000000 )
                  (  1.0000000  0.0000000  0.0000000 )
                  (  0.0000000  0.0000000 -1.0000000 )


      isym = 32     inv.  90 deg rotation - cart. axis [0,0,1]   

 cryst.   s(32) = (     0         -1          0      )
                  (     1          0          0      )
                  (     0          0         -1      )

 cart.    s(32) = (  0.0000000  1.0000000  0.0000000 )
                  ( -1.0000000  0.0000000  0.0000000 )
                  (  0.0000000  0.0000000 -1.0000000 )


      isym = 33     inv. 180 deg rotation - cart. axis [1,0,1]   

 cryst.   s(33) = (     0          0         -1      )
                  (     0          1          0      )
                  (    -1          0          0      )

 cart.    s(33) = (  0.0000000  0.0000000 -1.0000000 )
                  (  0.0000000  1.0000000  0.0000000 )
                  ( -1.0000000  0.0000000  0.0000000 )


      isym = 34     inv. 180 deg rotation - cart. axis [-1,0,1]  

 cryst.   s(34) = (     0          0          1      )
                  (     0          1          0      )
                  (     1          0          0      )

 cart.    s(34) = (  0.0000000  0.0000000  1.0000000 )
                  (  0.0000000  1.0000000  0.0000000 )
                  (  1.0000000  0.0000000  0.0000000 )


      isym = 35     inv.  90 deg rotation - cart. axis [0,1,0]   

 cryst.   s(35) = (     0          0          1      )
                  (     0         -1          0      )
                  (    -1          0          0      )

 cart.    s(35) = (  0.0000000  0.0000000 -1.0000000 )
                  (  0.0000000 -1.0000000  0.0000000 )
                  (  1.0000000  0.0000000  0.0000000 )


      isym = 36     inv.  90 deg rotation - cart. axis [0,-1,0]  

 cryst.   s(36) = (     0          0         -1      )
                  (     0         -1          0      )
                  (     1          0          0      )

 cart.    s(36) = (  0.0000000  0.0000000  1.0000000 )
                  (  0.0000000 -1.0000000  0.0000000 )
                  ( -1.0000000  0.0000000  0.0000000 )


      isym = 37     inv. 180 deg rotation - cart. axis [0,1,1]   

 cryst.   s(37) = (     1          0          0      )
                  (     0          0         -1      )
                  (     0         -1          0      )

 cart.    s(37) = (  1.0000000  0.0000000  0.0000000 )
                  (  0.0000000  0.0000000 -1.0000000 )
                  (  0.0000000 -1.0000000  0.0000000 )


      isym = 38     inv. 180 deg rotation - cart. axis [0,1,-1]  

 cryst.   s(38) = (     1          0          0      )
                  (     0          0          1      )
                  (     0          1          0      )

 cart.    s(38) = (  1.0000000  0.0000000  0.0000000 )
                  (  0.0000000  0.0000000  1.0000000 )
                  (  0.0000000  1.0000000  0.0000000 )


      isym = 39     inv.  90 deg rotation - cart. axis [-1,0,0]  

 cryst.   s(39) = (    -1          0          0      )
                  (     0          0          1      )
                  (     0         -1          0      )

 cart.    s(39) = ( -1.0000000  0.0000000  0.0000000 )
                  (  0.0000000  0.0000000 -1.0000000 )
                  (  0.0000000  1.0000000  0.0000000 )


      isym = 40     inv.  90 deg rotation - cart. axis [1,0,0]   

 cryst.   s(40) = (    -1          0          0      )
                  (     0          0         -1      )
                  (     0          1          0      )

 cart.    s(40) = ( -1.0000000  0.0000000  0.0000000 )
                  (  0.0000000  0.0000000  1.0000000 )
                  (  0.0000000 -1.0000000  0.0000000 )


      isym = 41     inv. 120 deg rotation - cart. axis [-1,-1,-1]

 cryst.   s(41) = (     0          0         -1      )
                  (    -1          0          0      )
                  (     0         -1          0      )

 cart.    s(41) = (  0.0000000 -1.0000000  0.0000000 )
                  (  0.0000000  0.0000000 -1.0000000 )
                  ( -1.0000000  0.0000000  0.0000000 )


      isym = 42     inv. 120 deg rotation - cart. axis [-1,1,1]  

 cryst.   s(42) = (     0          0          1      )
                  (     1          0          0      )
                  (     0         -1          0      )

 cart.    s(42) = (  0.0000000  1.0000000  0.0000000 )
                  (  0.0000000  0.0000000 -1.0000000 )
                  (  1.0000000  0.0000000  0.0000000 )


      isym = 43     inv. 120 deg rotation - cart. axis [1,1,-1]  

 cryst.   s(43) = (     0          0          1      )
                  (    -1          0          0      )
                  (     0          1          0      )

 cart.    s(43) = (  0.0000000 -1.0000000  0.0000000 )
                  (  0.0000000  0.0000000  1.0000000 )
                  (  1.0000000  0.0000000  0.0000000 )


      isym = 44     inv. 120 deg rotation - cart. axis [1,-1,1]  

 cryst.   s(44) = (     0          0         -1      )
                  (     1          0          0      )
                  (     0          1          0      )

 cart.    s(44) = (  0.0000000  1.0000000  0.0000000 )
                  (  0.0000000  0.0000000  1.0000000 )
                  ( -1.0000000  0.0000000  0.0000000 )


      isym = 45     inv. 120 deg rotation - cart. axis [1,1,1]   

 cryst.   s(45) = (     0         -1          0      )
                  (     0          0         -1      )
                  (    -1          0          0      )

 cart.    s(45) = (  0.0000000  0.0000000 -1.0000000 )
                  ( -1.0000000  0.0000000  0.0000000 )
                  (  0.0000000 -1.0000000  0.0000000 )


      isym = 46     inv. 120 deg rotation - cart. axis [-1,1,-1] 

 cryst.   s(46) = (     0          1          0      )
                  (     0          0          1      )
                  (    -1          0          0      )

 cart.    s(46) = (  0.0000000  0.0000000 -1.0000000 )
                  (  1.0000000  0.0000000  0.0000000 )
                  (  0.0000000  1.0000000  0.0000000 )


      isym = 47     inv. 120 deg rotation - cart. axis [1,-1,-1] 

 cryst.   s(47) = (     0          1          0      )
                  (     0          0         -1      )
                  (     1          0          0      )

 cart.    s(47) = (  0.0000000  0.0000000  1.0000000 )
                  (  1.0000000  0.0000000  0.0000000 )
                  (  0.0000000 -1.0000000  0.0000000 )


      isym = 48     inv. 120 deg rotation - cart. axis [-1,-1,1] 

 cryst.   s(48) = (     0         -1          0      )
                  (     0          0          1      )
                  (     1          0          0      )

 cart.    s(48) = (  0.0000000  0.0000000  1.0000000 )
                  ( -1.0000000  0.0000000  0.0000000 )
                  (  0.0000000  1.0000000  0.0000000 )


   Cartesian axes

     site n.     atom                  positions (alat units)
         1           Ir  tau(   1) = (   0.5000000   0.5000000   0.5000000  )

   Crystallographic axes

     site n.     atom                  positions (cryst. coord.)
         1           Ir  tau(   1) = (  0.5000000  0.5000000  0.5000000  )

     number of k points=     1
                       cart. coord. in units 2pi/alat
        k(    1) = (   0.0000000   0.0000000   0.0000000), wk =   1.0000000

                       cryst. coord.
        k(    1) = (   0.0000000   0.0000000   0.0000000), wk =   1.0000000

     Dense  grid:  8806864 G-vectors     FFT dimensions: ( 324, 324, 324)

     Dynamical RAM for                 wfc:       6.30 MB

     Dynamical RAM for     wfc (w. buffer):      18.90 MB

     Dynamical RAM for           str. fact:       4.20 MB

     Dynamical RAM for           local pot:       0.00 MB

     Dynamical RAM for          nlocal pot:       7.87 MB

     Dynamical RAM for                qrad:       5.17 MB

     Dynamical RAM for          rho,v,vnew:      78.06 MB

     Dynamical RAM for               rhoin:      26.02 MB

     Dynamical RAM for            rho*nmix:     134.38 MB

     Dynamical RAM for           G-vectors:      17.85 MB

     Dynamical RAM for          h,s,v(r/c):       0.00 MB

     Dynamical RAM for          <psi|beta>:       0.00 MB

     Dynamical RAM for                 psi:      25.20 MB

     Dynamical RAM for                hpsi:      25.20 MB

     Dynamical RAM for      wfcinit/wfcrot:      16.80 MB

     Estimated static dynamical RAM per process >     353.71 MB

     Estimated max dynamical RAM per process >     404.10 MB

     Estimated total dynamical RAM >      12.63 GB
     Generating pointlists ...
     new r_m :   0.4125 (alat units)  9.3541 (a.u.) for type    1

     Initial potential from superposition of free atoms

     starting charge   14.48040, renormalised to   17.00000

     negative rho (up, down):  9.145E-03 0.000E+00
     Starting wfcs are   16 randomized atomic wfcs

     total cpu time spent up to now is       12.3 secs

     Self-consistent Calculation

     iteration #  1     ecut=   500.00 Ry     beta= 0.70
     Davidson diagonalization with overlap
     ethr =  1.00E-02,  avg # of iterations = 11.5

     negative rho (up, down):  1.736E-05 8.685E-02

     total cpu time spent up to now is       30.8 secs

     total energy              =    -199.78777773 Ry
     Harris-Foulkes estimate   =    -211.35015716 Ry
     estimated scf accuracy    <      14.87789847 Ry

     total magnetization       =     3.00 Bohr mag/cell
     absolute magnetization    =     5.47 Bohr mag/cell

     iteration #  2     ecut=   500.00 Ry     beta= 0.70
     Davidson diagonalization with overlap
     ethr =  1.00E-02,  avg # of iterations =  8.0

     negative rho (up, down):  1.021E-05 8.540E-02

     total cpu time spent up to now is       46.6 secs

     total energy              =    -209.28632087 Ry
     Harris-Foulkes estimate   =    -214.41843934 Ry
     estimated scf accuracy    <       8.94020954 Ry

     total magnetization       =     3.00 Bohr mag/cell
     absolute magnetization    =     3.00 Bohr mag/cell

     iteration #  3     ecut=   500.00 Ry     beta= 0.70
     Davidson diagonalization with overlap
     ethr =  1.00E-02,  avg # of iterations =  3.0

     negative rho (up, down):  8.070E-06 8.559E-02

     total cpu time spent up to now is       57.4 secs

     total energy              =    -209.45571345 Ry
     Harris-Foulkes estimate   =    -209.89765573 Ry
     estimated scf accuracy    <       1.65415495 Ry

     total magnetization       =     3.00 Bohr mag/cell
     absolute magnetization    =     3.00 Bohr mag/cell

     iteration #  4     ecut=   500.00 Ry     beta= 0.70
     Davidson diagonalization with overlap
     ethr =  9.73E-03,  avg # of iterations =  1.0

     negative rho (up, down):  4.562E-06 8.649E-02

     total cpu time spent up to now is       66.3 secs

     total energy              =    -209.03605159 Ry
     Harris-Foulkes estimate   =    -209.48657112 Ry
     estimated scf accuracy    <       0.93408900 Ry

     total magnetization       =     3.00 Bohr mag/cell
     absolute magnetization    =     3.00 Bohr mag/cell

     iteration #  5     ecut=   500.00 Ry     beta= 0.70
     Davidson diagonalization with overlap
     ethr =  5.49E-03,  avg # of iterations =  2.5

     negative rho (up, down):  1.981E-06 8.622E-02

     total cpu time spent up to now is       75.8 secs

     total energy              =    -209.07073614 Ry
     Harris-Foulkes estimate   =    -209.13261064 Ry
     estimated scf accuracy    <       0.17577690 Ry

     total magnetization       =     3.00 Bohr mag/cell
     absolute magnetization    =     3.00 Bohr mag/cell

     iteration #  6     ecut=   500.00 Ry     beta= 0.70
     Davidson diagonalization with overlap
     ethr =  1.03E-03,  avg # of iterations =  5.0

     negative rho (up, down):  5.561E-07 8.164E-02

     total cpu time spent up to now is       87.9 secs

     total energy              =    -209.11893364 Ry
     Harris-Foulkes estimate   =    -209.12527650 Ry
     estimated scf accuracy    <       0.03878902 Ry

     total magnetization       =     3.00 Bohr mag/cell
     absolute magnetization    =     3.00 Bohr mag/cell

     iteration #  7     ecut=   500.00 Ry     beta= 0.70
     Davidson diagonalization with overlap
     ethr =  2.28E-04,  avg # of iterations =  3.0

     negative rho (up, down):  2.593E-08 6.835E-02

     total cpu time spent up to now is       97.6 secs

     total energy              =    -209.12106185 Ry
     Harris-Foulkes estimate   =    -209.12319970 Ry
     estimated scf accuracy    <       0.00791903 Ry

     total magnetization       =     3.00 Bohr mag/cell
     absolute magnetization    =     3.00 Bohr mag/cell

     iteration #  8     ecut=   500.00 Ry     beta= 0.70
     Davidson diagonalization with overlap
     ethr =  4.66E-05,  avg # of iterations =  5.5

     negative rho (up, down):  7.353E-08 7.107E-02

     total cpu time spent up to now is      110.3 secs

     total energy              =    -209.12235680 Ry
     Harris-Foulkes estimate   =    -209.12489935 Ry
     estimated scf accuracy    <       0.06171484 Ry

     total magnetization       =     3.00 Bohr mag/cell
     absolute magnetization    =     3.01 Bohr mag/cell

     iteration #  9     ecut=   500.00 Ry     beta= 0.70
     Davidson diagonalization with overlap
     ethr =  4.66E-05,  avg # of iterations =  1.0

     negative rho (up, down):  2.712E-08 7.008E-02

     total cpu time spent up to now is      119.3 secs

     total energy              =    -209.12365561 Ry
     Harris-Foulkes estimate   =    -209.12351006 Ry
     estimated scf accuracy    <       0.00672280 Ry

     total magnetization       =     3.00 Bohr mag/cell
     absolute magnetization    =     3.00 Bohr mag/cell

     iteration # 10     ecut=   500.00 Ry     beta= 0.70
     Davidson diagonalization with overlap
     ethr =  3.95E-05,  avg # of iterations =  1.0

     negative rho (up, down):  5.463E-08 7.068E-02

     total cpu time spent up to now is      128.4 secs

     total energy              =    -209.12405693 Ry
     Harris-Foulkes estimate   =    -209.12383570 Ry
     estimated scf accuracy    <       0.01102063 Ry

     total magnetization       =     3.00 Bohr mag/cell
     absolute magnetization    =     3.00 Bohr mag/cell

     iteration # 11     ecut=   500.00 Ry     beta= 0.70
     Davidson diagonalization with overlap
     ethr =  3.95E-05,  avg # of iterations =  1.0

     negative rho (up, down):  5.561E-08 7.016E-02

     total cpu time spent up to now is      137.5 secs

     total energy              =    -209.12404479 Ry
     Harris-Foulkes estimate   =    -209.12422531 Ry
     estimated scf accuracy    <       0.02893379 Ry

     total magnetization       =     3.00 Bohr mag/cell
     absolute magnetization    =     3.00 Bohr mag/cell

     iteration # 12     ecut=   500.00 Ry     beta= 0.70
     Davidson diagonalization with overlap
     ethr =  3.95E-05,  avg # of iterations =  1.0

     negative rho (up, down):  1.639E-06 2.545E-01

     total cpu time spent up to now is      146.5 secs

     total energy              =    -209.11962043 Ry
     Harris-Foulkes estimate   =    -209.12412587 Ry
     estimated scf accuracy    <       0.02154100 Ry

     total magnetization       =     3.00 Bohr mag/cell
     absolute magnetization    =     3.00 Bohr mag/cell

     iteration # 13     ecut=   500.00 Ry     beta= 0.70
     Davidson diagonalization with overlap
     ethr =  3.95E-05,  avg # of iterations =  6.5

     negative rho (up, down):  1.269E-08 4.235E-02

     total cpu time spent up to now is      158.8 secs

     total energy              =    -209.12230335 Ry
     Harris-Foulkes estimate   =    -209.12611055 Ry
     estimated scf accuracy    <       0.01592402 Ry

     total magnetization       =     3.00 Bohr mag/cell
     absolute magnetization    =     3.00 Bohr mag/cell

     iteration # 14     ecut=   500.00 Ry     beta= 0.70
     Davidson diagonalization with overlap
     ethr =  3.95E-05,  avg # of iterations =  1.5

     negative rho (up, down):  3.523E-10 7.135E-03

     total cpu time spent up to now is      168.2 secs

     total energy              =    -209.12344208 Ry
     Harris-Foulkes estimate   =    -209.12350068 Ry
     estimated scf accuracy    <       0.00035513 Ry

     total magnetization       =     3.00 Bohr mag/cell
     absolute magnetization    =     3.00 Bohr mag/cell

     iteration # 15     ecut=   500.00 Ry     beta= 0.70
     Davidson diagonalization with overlap
     ethr =  2.09E-06,  avg # of iterations = 13.5

     negative rho (up, down):  1.366E-09 1.354E-02

     total cpu time spent up to now is      182.9 secs

     total energy              =    -209.12356327 Ry
     Harris-Foulkes estimate   =    -209.12357712 Ry
     estimated scf accuracy    <       0.00013219 Ry

     total magnetization       =     3.00 Bohr mag/cell
     absolute magnetization    =     3.00 Bohr mag/cell

     iteration # 16     ecut=   500.00 Ry     beta= 0.70
     Davidson diagonalization with overlap
     ethr =  7.78E-07,  avg # of iterations =  2.0

     negative rho (up, down):  2.974E-09 1.905E-02

     total cpu time spent up to now is      192.3 secs

     total energy              =    -209.12352327 Ry
     Harris-Foulkes estimate   =    -209.12357563 Ry
     estimated scf accuracy    <       0.00017245 Ry

     total magnetization       =     3.00 Bohr mag/cell
     absolute magnetization    =     3.00 Bohr mag/cell

     iteration # 17     ecut=   500.00 Ry     beta= 0.70
     Davidson diagonalization with overlap
     ethr =  7.78E-07,  avg # of iterations =  2.0

     negative rho (up, down):  3.534E-09 2.072E-02

     total cpu time spent up to now is      201.9 secs

     total energy              =    -209.12356244 Ry
     Harris-Foulkes estimate   =    -209.12356930 Ry
     estimated scf accuracy    <       0.00027124 Ry

     total magnetization       =     3.00 Bohr mag/cell
     absolute magnetization    =     3.00 Bohr mag/cell

     iteration # 18     ecut=   500.00 Ry     beta= 0.70
     Davidson diagonalization with overlap
     ethr =  7.78E-07,  avg # of iterations =  1.0

     negative rho (up, down):  2.646E-09 1.776E-02

     total cpu time spent up to now is      211.0 secs

     total energy              =    -209.12355857 Ry
     Harris-Foulkes estimate   =    -209.12356635 Ry
     estimated scf accuracy    <       0.00023576 Ry

     total magnetization       =     3.00 Bohr mag/cell
     absolute magnetization    =     3.00 Bohr mag/cell

     iteration # 19     ecut=   500.00 Ry     beta= 0.70
     Davidson diagonalization with overlap
     ethr =  7.78E-07,  avg # of iterations =  1.0

     negative rho (up, down):  3.523E-10 5.020E-03

     total cpu time spent up to now is      220.0 secs

     total energy              =    -209.12343645 Ry
     Harris-Foulkes estimate   =    -209.12356521 Ry
     estimated scf accuracy    <       0.00020576 Ry

     total magnetization       =     3.00 Bohr mag/cell
     absolute magnetization    =     3.00 Bohr mag/cell

     iteration # 20     ecut=   500.00 Ry     beta= 0.70
     Davidson diagonalization with overlap
     ethr =  7.78E-07,  avg # of iterations =  9.5

     negative rho (up, down):  1.602E-10 3.696E-03

     total cpu time spent up to now is      233.1 secs

     total energy              =    -209.12361376 Ry
     Harris-Foulkes estimate   =    -209.12361027 Ry
     estimated scf accuracy    <       0.00010787 Ry

     total magnetization       =     3.00 Bohr mag/cell
     absolute magnetization    =     3.00 Bohr mag/cell

     iteration # 21     ecut=   500.00 Ry     beta= 0.70
     Davidson diagonalization with overlap
     ethr =  6.35E-07,  avg # of iterations =  8.0

     negative rho (up, down):  1.315E-05 4.168E-01

     total cpu time spent up to now is      244.8 secs

     total energy              =    -209.12359802 Ry
     Harris-Foulkes estimate   =    -209.12364715 Ry
     estimated scf accuracy    <       0.00005420 Ry

     total magnetization       =     3.00 Bohr mag/cell
     absolute magnetization    =     3.00 Bohr mag/cell

     iteration # 22     ecut=   500.00 Ry     beta= 0.70
     Davidson diagonalization with overlap
     ethr =  3.19E-07,  avg # of iterations = 10.0

     negative rho (up, down):  1.165E-05 4.148E-01

     total cpu time spent up to now is      259.1 secs

     total energy              =    -209.12404232 Ry
     Harris-Foulkes estimate   =    -209.12404950 Ry
     estimated scf accuracy    <       0.00194839 Ry

     total magnetization       =     3.00 Bohr mag/cell
     absolute magnetization    =     3.01 Bohr mag/cell

     iteration # 23     ecut=   500.00 Ry     beta= 0.70
     Davidson diagonalization with overlap
     ethr =  3.19E-07,  avg # of iterations =  1.0

     negative rho (up, down):  1.133E-05 4.135E-01

     total cpu time spent up to now is      268.0 secs

     total energy              =    -209.12403176 Ry
     Harris-Foulkes estimate   =    -209.12404440 Ry
     estimated scf accuracy    <       0.00166250 Ry

     total magnetization       =     3.00 Bohr mag/cell
     absolute magnetization    =     3.01 Bohr mag/cell

     iteration # 24     ecut=   500.00 Ry     beta= 0.70
     Davidson diagonalization with overlap
     ethr =  3.19E-07,  avg # of iterations =  1.0

     negative rho (up, down):  9.632E-06 4.034E-01

     total cpu time spent up to now is      277.0 secs

     total energy              =    -209.12395459 Ry
     Harris-Foulkes estimate   =    -209.12403219 Ry
     estimated scf accuracy    <       0.00158919 Ry

     total magnetization       =     3.00 Bohr mag/cell
     absolute magnetization    =     3.01 Bohr mag/cell

     iteration # 25     ecut=   500.00 Ry     beta= 0.70
     Davidson diagonalization with overlap
     ethr =  3.19E-07,  avg # of iterations =  1.5

     negative rho (up, down):  7.152E-11 1.064E-03

     total cpu time spent up to now is      286.1 secs

     total energy              =    -209.12359684 Ry
     Harris-Foulkes estimate   =    -209.12395987 Ry
     estimated scf accuracy    <       0.00130457 Ry

     total magnetization       =     3.00 Bohr mag/cell
     absolute magnetization    =     3.01 Bohr mag/cell

     iteration # 26     ecut=   500.00 Ry     beta= 0.70
     Davidson diagonalization with overlap
     ethr =  3.19E-07,  avg # of iterations =  4.0

     negative rho (up, down):  2.560E-10 3.526E-03

     total cpu time spent up to now is      297.5 secs

     total energy              =    -209.12356105 Ry
     Harris-Foulkes estimate   =    -209.12371623 Ry
     estimated scf accuracy    <       0.00028853 Ry

     total magnetization       =     3.00 Bohr mag/cell
     absolute magnetization    =     3.00 Bohr mag/cell

     iteration # 27     ecut=   500.00 Ry     beta= 0.70
     Davidson diagonalization with overlap
     ethr =  3.19E-07,  avg # of iterations =  2.5

     negative rho (up, down):  1.751E-10 2.386E-03

     total cpu time spent up to now is      307.8 secs

     total energy              =    -209.12352914 Ry
     Harris-Foulkes estimate   =    -209.12364247 Ry
     estimated scf accuracy    <       0.00004208 Ry

     total magnetization       =     3.00 Bohr mag/cell
     absolute magnetization    =     3.00 Bohr mag/cell

     iteration # 28     ecut=   500.00 Ry     beta= 0.70
     Davidson diagonalization with overlap
     ethr =  2.48E-07,  avg # of iterations =  8.5

     negative rho (up, down):  5.781E-14 2.940E-08

     total cpu time spent up to now is      320.3 secs

     total energy              =    -209.12359595 Ry
     Harris-Foulkes estimate   =    -209.12360589 Ry
     estimated scf accuracy    <       0.00007767 Ry

     total magnetization       =     3.00 Bohr mag/cell
     absolute magnetization    =     3.00 Bohr mag/cell

     iteration # 29     ecut=   500.00 Ry     beta= 0.70
     Davidson diagonalization with overlap
     ethr =  2.48E-07,  avg # of iterations =  1.5

     negative rho (up, down):  9.413E-16 2.940E-08

     total cpu time spent up to now is      329.9 secs

     total energy              =    -209.12362600 Ry
     Harris-Foulkes estimate   =    -209.12362584 Ry
     estimated scf accuracy    <       0.00007266 Ry

     total magnetization       =     3.00 Bohr mag/cell
     absolute magnetization    =     3.00 Bohr mag/cell

     iteration # 30     ecut=   500.00 Ry     beta= 0.70
     Davidson diagonalization with overlap
     ethr =  2.48E-07,  avg # of iterations =  1.0

     negative rho (up, down):  5.453E-13 1.176E-07

     total cpu time spent up to now is      338.9 secs

     total energy              =    -209.12363190 Ry
     Harris-Foulkes estimate   =    -209.12362647 Ry
     estimated scf accuracy    <       0.00007249 Ry

     total magnetization       =     3.00 Bohr mag/cell
     absolute magnetization    =     3.00 Bohr mag/cell

     iteration # 31     ecut=   500.00 Ry     beta= 0.70
     Davidson diagonalization with overlap
     ethr =  2.48E-07,  avg # of iterations =  2.0

     total cpu time spent up to now is      348.2 secs

     total energy              =    -209.12362159 Ry
     Harris-Foulkes estimate   =    -209.12363615 Ry
     estimated scf accuracy    <       0.00006035 Ry

     total magnetization       =     3.00 Bohr mag/cell
     absolute magnetization    =     3.00 Bohr mag/cell

     iteration # 32     ecut=   500.00 Ry     beta= 0.70
     Davidson diagonalization with overlap
     ethr =  2.48E-07,  avg # of iterations =  1.5

     total cpu time spent up to now is      357.4 secs

     total energy              =    -209.12360590 Ry
     Harris-Foulkes estimate   =    -209.12362609 Ry
     estimated scf accuracy    <       0.00007114 Ry

     total magnetization       =     3.00 Bohr mag/cell
     absolute magnetization    =     3.00 Bohr mag/cell

     iteration # 33     ecut=   500.00 Ry     beta= 0.70
     Davidson diagonalization with overlap
     ethr =  2.48E-07,  avg # of iterations =  1.5

     negative rho (up, down):  7.956E-09 5.572E-02

     total cpu time spent up to now is      366.9 secs

     total energy              =    -209.12344067 Ry
     Harris-Foulkes estimate   =    -209.12361376 Ry
     estimated scf accuracy    <       0.00006780 Ry

     total magnetization       =     3.00 Bohr mag/cell
     absolute magnetization    =     3.00 Bohr mag/cell

     iteration # 34     ecut=   500.00 Ry     beta= 0.70
     Davidson diagonalization with overlap
     ethr =  2.48E-07,  avg # of iterations =  3.5

     negative rho (up, down):  2.089E-12 4.660E-04

     total cpu time spent up to now is      377.9 secs

     total energy              =    -209.12355864 Ry
     Harris-Foulkes estimate   =    -209.12357952 Ry
     estimated scf accuracy    <       0.00004062 Ry

     total magnetization       =     3.00 Bohr mag/cell
     absolute magnetization    =     3.00 Bohr mag/cell

     iteration # 35     ecut=   500.00 Ry     beta= 0.70
     Davidson diagonalization with overlap
     ethr =  2.39E-07,  avg # of iterations =  2.0

     total cpu time spent up to now is      387.8 secs

     total energy              =    -209.12356010 Ry
     Harris-Foulkes estimate   =    -209.12358611 Ry
     estimated scf accuracy    <       0.00000668 Ry

     total magnetization       =     3.00 Bohr mag/cell
     absolute magnetization    =     3.00 Bohr mag/cell

     iteration # 36     ecut=   500.00 Ry     beta= 0.70
     Davidson diagonalization with overlap
     ethr =  3.93E-08,  avg # of iterations =  4.0

     total cpu time spent up to now is      398.9 secs

     total energy              =    -209.12358055 Ry
     Harris-Foulkes estimate   =    -209.12358153 Ry
     estimated scf accuracy    <       0.00000928 Ry

     total magnetization       =     3.00 Bohr mag/cell
     absolute magnetization    =     3.00 Bohr mag/cell

     iteration # 37     ecut=   500.00 Ry     beta= 0.70
     Davidson diagonalization with overlap
     ethr =  3.93E-08,  avg # of iterations =  1.0

     negative rho (up, down):  0.000E+00 2.123E-03

     total cpu time spent up to now is      407.9 secs

     total energy              =    -209.12357952 Ry
     Harris-Foulkes estimate   =    -209.12358088 Ry
     estimated scf accuracy    <       0.00000342 Ry

     total magnetization       =     3.00 Bohr mag/cell
     absolute magnetization    =     3.00 Bohr mag/cell

     iteration # 38     ecut=   500.00 Ry     beta= 0.70
     Davidson diagonalization with overlap
     ethr =  2.01E-08,  avg # of iterations =  2.0

     total cpu time spent up to now is      417.4 secs

     total energy              =    -209.12358041 Ry
     Harris-Foulkes estimate   =    -209.12358042 Ry
     estimated scf accuracy    <       0.00000102 Ry

     total magnetization       =     3.00 Bohr mag/cell
     absolute magnetization    =     3.00 Bohr mag/cell

     iteration # 39     ecut=   500.00 Ry     beta= 0.70
     Davidson diagonalization with overlap
     ethr =  6.01E-09,  avg # of iterations =  3.0

     total cpu time spent up to now is      427.2 secs

     total energy              =    -209.12357975 Ry
     Harris-Foulkes estimate   =    -209.12358063 Ry
     estimated scf accuracy    <       0.00000129 Ry

     total magnetization       =     3.00 Bohr mag/cell
     absolute magnetization    =     3.00 Bohr mag/cell

     iteration # 40     ecut=   500.00 Ry     beta= 0.70
     Davidson diagonalization with overlap
     ethr =  6.01E-09,  avg # of iterations =  3.0

     total cpu time spent up to now is      438.2 secs

     total energy              =    -209.12358013 Ry
     Harris-Foulkes estimate   =    -209.12358100 Ry
     estimated scf accuracy    <       0.00000133 Ry

     total magnetization       =     3.00 Bohr mag/cell
     absolute magnetization    =     3.00 Bohr mag/cell

     iteration # 41     ecut=   500.00 Ry     beta= 0.70
     Davidson diagonalization with overlap
     ethr =  6.01E-09,  avg # of iterations =  2.0
 
     Magnetic moment per site:
     atom:    1    charge:   16.9998    magn:    2.9999    constr:    0.0000

     total cpu time spent up to now is      446.9 secs

     End of self-consistent calculation

 ------ SPIN UP ------------


          k = 0.0000 0.0000 0.0000 (****** PWs)   bands (ev):

   -95.7029 -53.1690 -53.0112 -52.9586  -6.5371  -6.5289  -6.0369  -5.8387
    -5.5548  -5.5143  -1.0691  -0.9100

     occupation numbers 
     1.0000   1.0000   1.0000   1.0000   1.0000   1.0000   1.0000   1.0000
     1.0000   1.0000   0.0000   0.0000

 ------ SPIN DOWN ----------


          k = 0.0000 0.0000 0.0000 (****** PWs)   bands (ev):

   -94.5362 -51.7486 -51.6010 -51.5581  -4.7070  -4.6687  -4.6596  -4.5034
    -3.8696  -3.7892  -0.2896  -0.2373

     occupation numbers 
     1.0000   1.0000   1.0000   1.0000   1.0000   1.0000   1.0000   0.0000
     0.0000   0.0000   0.0000   0.0000

     highest occupied, lowest unoccupied level (ev):    -4.6596   -4.5034

!    total energy              =    -209.12358097 Ry
     Harris-Foulkes estimate   =    -209.12358106 Ry
     estimated scf accuracy    <       0.00000072 Ry

     The total energy is the sum of the following terms:

     one-electron contribution =    -290.38699345 Ry
     hartree contribution      =     138.57472953 Ry
     xc contribution           =     -21.15180178 Ry
     ewald contribution        =     -36.15951528 Ry

     total magnetization       =     3.00 Bohr mag/cell
     absolute magnetization    =     3.00 Bohr mag/cell

     convergence has been achieved in  41 iterations

     Writing output data file pwscf.save/
 
     init_run     :     11.68s CPU     12.18s WALL (       1 calls)
     electrons    :    423.84s CPU    435.75s WALL (       1 calls)

     Called by init_run:
     wfcinit      :      2.39s CPU      2.56s WALL (       1 calls)
     wfcinit:atom :      0.04s CPU      0.05s WALL (       2 calls)
     wfcinit:wfcr :      2.28s CPU      2.41s WALL (       2 calls)
     potinit      :      2.81s CPU      2.99s WALL (       1 calls)
     hinit0       :      0.27s CPU      0.33s WALL (       1 calls)

     Called by electrons:
     c_bands      :    214.30s CPU    217.20s WALL (      41 calls)
     sum_band     :     66.92s CPU     67.12s WALL (      41 calls)
     v_of_rho     :    103.74s CPU    108.39s WALL (      42 calls)
     v_h          :      8.27s CPU      8.32s WALL (      42 calls)
     v_xc         :     95.46s CPU    100.07s WALL (      42 calls)
     mix_rho      :     37.73s CPU     41.17s WALL (      41 calls)

     Called by c_bands:
     init_us_2    :      2.17s CPU      2.18s WALL (     166 calls)
     regterg      :    209.71s CPU    212.58s WALL (      82 calls)

     Called by sum_band:

     Called by *egterg:
     h_psi        :    190.81s CPU    191.43s WALL (     374 calls)
     g_psi        :      0.63s CPU      0.64s WALL (     290 calls)
     rdiaghg      :      0.38s CPU      0.40s WALL (     372 calls)
     regterg:over :      4.90s CPU      4.91s WALL (     290 calls)
     regterg:upda :      9.03s CPU      9.12s WALL (     290 calls)
     regterg:last :      2.62s CPU      2.62s WALL (      93 calls)
     rdiaghg:chol :      0.06s CPU      0.07s WALL (     372 calls)
     rdiaghg:inve :      0.01s CPU      0.01s WALL (     372 calls)
     rdiaghg:para :      0.04s CPU      0.04s WALL (     744 calls)

     Called by h_psi:
     h_psi:pot    :    189.54s CPU    190.15s WALL (     374 calls)
     h_psi:calbec :      1.39s CPU      1.51s WALL (     374 calls)
     vloc_psi     :    186.48s CPU    186.98s WALL (     374 calls)
     add_vuspsi   :      1.66s CPU      1.66s WALL (     374 calls)

     General routines
     calbec       :      1.39s CPU      1.50s WALL (     374 calls)
     fft          :     92.69s CPU     93.44s WALL (     626 calls)
     ffts         :      9.61s CPU      9.65s WALL (      82 calls)
     fftw         :    182.89s CPU    183.44s WALL (    3340 calls)
 
     Parallel routines
     fft_scatt_xy :     51.01s CPU     51.09s WALL (    4048 calls)
     fft_scatt_yz :    105.36s CPU    106.28s WALL (    4048 calls)
 
     PWSCF        :   7m16.24s CPU   7m30.28s WALL

 
   This run was terminated on:  14: 0:58  17Jan2022            

=------------------------------------------------------------------------------=
   JOB DONE.
=------------------------------------------------------------------------------=
