
 Primary working directories    : /global/cscratch1/sd/bkincaid
 Secondary working directories  : /global/cscratch1/sd/bkincaid
 Wavefunction directory         : /global/homes/b/bkincaid/wfu/
 Main file repository           : /global/cscratch1/sd/bkincaid/

 SHA1      : 19cd028119e0e09f93f0674bd8af7968d9b3eff6
 NAME      : 2015.1.36
 ARCHNAME  : linux/x86_64
 FC        : /opt/cray/pe/craype/2.5.14/bin/ftn
 BLASLIB   : -L/opt/intel/compilers_and_libraries_2018.1.163/linux/mkl/lib/intel64 -Wl,-_start-group -lmkl_intel_ilp64 -lmkl_intel_thread -lmkl_core -Wl,-_end-group -liomp5
 id        : lbl

 Nodes     nprocs
 nid00797    11
 Number of processes for MPI-2 version of Molpro:   nprocs(total)=   12   nprocs(compute)=   11   nprocs(helper)=    1

 Using customized tuning parameters: mindgm=7; mindgv=16; mindgc=1; mindgr=1; noblas=0; minvec=7
 default implementation of scratch files=sf  

 ***,Calculation for Pt atom, singlet and triplet
 memory,1024,m
 gthresh,twoint=1.e-15
 gthresh,oneint=1.e-15
 
 geometry={
 1
 Pt
 Pt  0.0 0.0 0.0
 }
 
 basis={
 Including file /global/u1/b/bkincaid/molpro/Pt/atoms/bk2.3/basis/ecp
 Including file /global/u1/b/bkincaid/molpro/Pt/atoms/bk2.3/basis/aug-cc-pwCVTZ.basis
 }
 
 Including file /global/u1/b/bkincaid/molpro/Pt/atoms/bk2.3/basis/states.proc
 
 do i=1,15
     if (i.eq.1) then
         Is1d9
     else if (i.eq.2) then
         EAs2d9
     else if (i.eq.3) then
         Is2d8
     else if (i.eq.4) then
         Idten
     else if (i.eq.5) then
         IId9
     else if (i.eq.6) then
         IIs1d8
     else if (i.eq.7) then
         IIId8
     else if (i.eq.8) then
         IVd7
     else if (i.eq.9) then
         Vd6
     else if (i.eq.10) then
         Vd5f1
     else if (i.eq.11) then
         VId5
     else if (i.eq.12) then
         Xf1
     else if (i.eq.13) then
         XIKr
     else if (i.eq.14) then
         XIVp3
     else if (i.eq.15) then
         XVIIs2
     endif
     scf(i)=energy
     _CC_NORM_MAX=2.0
    {rccsd(t),maxit=100;core}
     ccsd(i)=energy
 enddo
 
 table,scf,ccsd
 type,csv
 save

 Variables initialized (889), CPU time= 0.01 sec
 Commands  initialized (702), CPU time= 0.00 sec, 572 directives.
 Default parameters read. Elapsed time= 0.19 sec

 Checking input...
 Passed
1


                                         ***  PROGRAM SYSTEM MOLPRO  ***
                                       Copyright, TTI GmbH Stuttgart, 2015
                                    Version 2015.1 linked Dec 29 2018 15:55:43


 **********************************************************************************************************************************
 LABEL *   Calculation for Pt atom, singlet and triplet                                  
  64 bit mpp version                                                                     DATE: 12-Sep-21          TIME: 00:34:47  
 **********************************************************************************************************************************

 SHA1:             19cd028119e0e09f93f0674bd8af7968d9b3eff6
 **********************************************************************************************************************************

 THRESHOLDS:

 ZERO    =  1.00D-12  ONEINT  =  1.00D-12  TWOINT  =  1.00D-15  PREFAC  =  1.00D-14  LOCALI  =  1.00D-09  EORDER  =  1.00D-04
 ENERGY  =  0.00D+00  ETEST   =  0.00D+00  EDENS   =  0.00D+00  THRDEDEF=  1.00D-06  GRADIENT=  1.00D-02  STEP    =  1.00D-03
 ORBITAL =  1.00D-05  CIVEC   =  1.00D-05  COEFF   =  1.00D-04  PRINTCI =  5.00D-02  PUNCHCI =  9.90D+01  OPTGRAD =  3.00D-04
 OPTENERG=  1.00D-06  OPTSTEP =  3.00D-04  THRGRAD =  1.00D-10  COMPRESS=  1.00D-11  VARMIN  =  1.00D-07  VARMAX  =  1.00D-03
 THRDOUB =  0.00D+00  THRDIV  =  1.00D-05  THRRED  =  1.00D-07  THRPSP  =  1.00D+00  THRDC   =  1.00D-10  THRCS   =  1.00D-10
 THRNRM  =  1.00D-08  THREQ   =  0.00D+00  THRDE   =  1.00D+00  THRREF  =  1.00D-05  SPARFAC =  1.00D+00  THRDLP  =  1.00D-07
 THRDIA  =  1.00D-10  THRDLS  =  1.00D-07  THRGPS  =  0.00D+00  THRKEX  =  0.00D+00  THRDIS  =  2.00D-01  THRVAR  =  1.00D-10
 THRLOC  =  1.00D-06  THRGAP  =  1.00D-06  THRLOCT = -1.00D+00  THRGAPT = -1.00D+00  THRORB  =  1.00D-06  THRMLTP =  0.00D+00
 THRCPQCI=  1.00D-10  KEXTA   =  0.00D+00  THRCOARS=  0.00D+00  SYMTOL  =  1.00D-06  GRADTOL =  1.00D-06  THROVL  =  1.00D-08
 THRORTH =  1.00D-08  GRID    =  1.00D-06  GRIDMAX =  1.00D-03  DTMAX   =  0.00D+00  THROCCDE=  1.00D-01  THROCCDE=  1.00D-01



 THRESHOLDS:

 ZERO    =  1.00D-12  ONEINT  =  1.00D-15  TWOINT  =  1.00D-15  PREFAC  =  1.00D-14  LOCALI  =  1.00D-09  EORDER  =  1.00D-04
 ENERGY  =  0.00D+00  ETEST   =  0.00D+00  EDENS   =  0.00D+00  THRDEDEF=  1.00D-06  GRADIENT=  1.00D-02  STEP    =  1.00D-03
 ORBITAL =  1.00D-05  CIVEC   =  1.00D-05  COEFF   =  1.00D-04  PRINTCI =  5.00D-02  PUNCHCI =  9.90D+01  OPTGRAD =  3.00D-04
 OPTENERG=  1.00D-06  OPTSTEP =  3.00D-04  THRGRAD =  1.00D-10  COMPRESS=  1.00D-11  VARMIN  =  1.00D-07  VARMAX  =  1.00D-03
 THRDOUB =  0.00D+00  THRDIV  =  1.00D-05  THRRED  =  1.00D-07  THRPSP  =  1.00D+00  THRDC   =  1.00D-10  THRCS   =  1.00D-10
 THRNRM  =  1.00D-08  THREQ   =  0.00D+00  THRDE   =  1.00D+00  THRREF  =  1.00D-05  SPARFAC =  1.00D+00  THRDLP  =  1.00D-07
 THRDIA  =  1.00D-10  THRDLS  =  1.00D-07  THRGPS  =  0.00D+00  THRKEX  =  0.00D+00  THRDIS  =  2.00D-01  THRVAR  =  1.00D-10
 THRLOC  =  1.00D-06  THRGAP  =  1.00D-06  THRLOCT = -1.00D+00  THRGAPT = -1.00D+00  THRORB  =  1.00D-06  THRMLTP =  0.00D+00
 THRCPQCI=  1.00D-10  KEXTA   =  0.00D+00  THRCOARS=  0.00D+00  SYMTOL  =  1.00D-06  GRADTOL =  1.00D-06  THROVL  =  1.00D-08
 THRORTH =  1.00D-08  GRID    =  1.00D-06  GRIDMAX =  1.00D-03  DTMAX   =  0.00D+00  THROCCDE=  1.00D-01  THROCCDE=  1.00D-01



Geometry recognized as XYZ


 Variable memory set to 1024000000 words,  buffer space   230000 words

 SETTING BASIS          =    USERDEF

 DO I                   =         1.00000000   

 Running procedure=IS1D9


 Recomputing integrals since basis changed


 Using spherical harmonics



 PROGRAM * SEWARD (Integral evaluation for generally contracted gaussian basis sets)     Author: Roland Lindh, 1990

 Geometry written to block  1 of record 700

 Orientation using atomic masses  
 Molecule type: Atom
 Symmetry elements: X,Y,Z
 Rotational constants:       0.0000000      0.0000000      0.0000000 GHz  (calculated with average atomic masses)

 Point group  D2h 



 ATOMIC COORDINATES

 NR  ATOM    CHARGE       X              Y              Z

   1  PT     18.00    0.000000000    0.000000000    0.000000000

 NUCLEAR CHARGE:                   18
 NUMBER OF PRIMITIVE AOS:         434
 NUMBER OF SYMMETRY AOS:          347
 NUMBER OF CONTRACTIONS:          347   (  78Ag  +  60B3u +  60B2u +  24B1g +  60B1u +  24B2g +  24B3g +  17Au  )
 NUMBER OF CORE ORBITALS:           4   (   1Ag  +   1B3u +   1B2u +   0B1g +   1B1u +   0B2g +   0B3g +   0Au  )
 NUMBER OF VALENCE ORBITALS:        6   (   3Ag  +   0B3u +   0B2u +   1B1g +   0B1u +   1B2g +   1B3g +   0Au  )


 NUCLEAR REPULSION ENERGY    0.00000000

 EXTRA SYMMETRY OF AOS IN SYMMETRY 1:   1 1 1 1 1 1 1 1 1 1   1 1 1 1 1 1 1 1 1 1   1 1 1 1 1 1 1 1 1 1   1 1 1 2 3 2 3 2 3 2
                                        3 2 3 2 3 2 3 2 3 2   3 2 3 2 3 2 3 2 3 2   3 2 3 2 3 2 3 2 3 4   5 6 4 5 6 4 5 6
 EXTRA SYMMETRY OF AOS IN SYMMETRY 2:   1 1 1 1 1 1 1 1 1 1   1 1 1 1 1 1 1 1 1 1   1 1 1 1 1 1 2 3 2 3   2 3 2 3 2 3 2 3 2 3
                                        2 3 2 3 2 3 2 3 2 3   2 3 2 3 2 3 2 3 2 3
 EXTRA SYMMETRY OF AOS IN SYMMETRY 3:   1 1 1 1 1 1 1 1 1 1   1 1 1 1 1 1 1 1 1 1   1 1 1 1 1 1 2 3 2 3   2 3 2 3 2 3 2 3 2 3
                                        2 3 2 3 2 3 2 3 2 3   2 3 2 3 2 3 2 3 2 3
 EXTRA SYMMETRY OF AOS IN SYMMETRY 4:   1 1 1 1 1 1 1 1 1 1   1 1 1 1 1 1 1 1 2 3   2 3 2 3
 EXTRA SYMMETRY OF AOS IN SYMMETRY 5:   1 1 1 1 1 1 1 1 1 1   1 1 1 1 1 1 1 1 1 1   1 1 1 1 1 1 2 3 2 3   2 3 2 3 2 3 2 3 2 3
                                        2 3 2 3 2 3 2 3 2 3   2 3 2 3 2 3 2 3 2 3
 EXTRA SYMMETRY OF AOS IN SYMMETRY 6:   1 1 1 1 1 1 1 1 1 1   1 1 1 1 1 1 1 1 2 3   2 3 2 3
 EXTRA SYMMETRY OF AOS IN SYMMETRY 7:   1 1 1 1 1 1 1 1 1 1   1 1 1 1 1 1 1 1 2 3   2 3 2 3

 Eigenvalues of metric

         1 0.632E-05 0.391E-04 0.662E-04 0.117E-03 0.187E-03 0.332E-03 0.599E-03 0.825E-03
         2 0.139E-04 0.272E-03 0.963E-03 0.191E-02 0.191E-02 0.243E-02 0.243E-02 0.245E-02
         3 0.139E-04 0.272E-03 0.963E-03 0.191E-02 0.191E-02 0.243E-02 0.243E-02 0.245E-02
         4 0.825E-03 0.217E-02 0.713E-02 0.171E-01 0.337E-01 0.649E-01 0.119E+00 0.188E+00
         5 0.139E-04 0.272E-03 0.963E-03 0.191E-02 0.191E-02 0.243E-02 0.243E-02 0.245E-02
         6 0.825E-03 0.217E-02 0.713E-02 0.171E-01 0.337E-01 0.649E-01 0.119E+00 0.188E+00
         7 0.825E-03 0.217E-02 0.713E-02 0.171E-01 0.337E-01 0.649E-01 0.119E+00 0.188E+00
         8 0.191E-02 0.243E-02 0.658E-02 0.118E-01 0.266E-01 0.456E-01 0.920E-01 0.173E+00


 Contracted 2-electron integrals neglected if value below      1.0D-15
 AO integral compression algorithm  1   Integral accuracy      1.0D-15

     1918.894 MB (compressed) written to integral file ( 47.7%)

     Node minimum: 110.363 MB, node maximum: 291.766 MB


 NUMBER OF SORTED TWO-ELECTRON INTEGRALS:   21372670.     BUFFER LENGTH:  32768
 NUMBER OF SEGMENTS:   1  SEGMENT LENGTH:   21372670      RECORD LENGTH: 524288

 Memory used in sort:      21.93 MW

 SORT1 READ   502828645. AND WROTE    14003921. INTEGRALS IN     41 RECORDS. CPU TIME:    10.79 SEC, REAL TIME:    11.46 SEC
 SORT2 READ   153399602. AND WROTE   235142862. INTEGRALS IN   4631 RECORDS. CPU TIME:     0.44 SEC, REAL TIME:     1.00 SEC

 Node minimum:    21275732.  Node maximum:    21480371. integrals

 OPERATOR DM      FOR CENTER  0  COORDINATES:    0.000000    0.000000    0.000000


 **********************************************************************************************************************************
 DATASETS  * FILE   NREC   LENGTH (MB)   RECORD NAMES
              1      19       20.77       500      610      700      900      950      970     1000      129      960     1100   
                                          VAR    BASINP    GEOM    SYMINP    ZMAT    AOBASIS   BASIS     P2S    ABASIS      S 
                                         1400     1410     1420     1200     1210     1080     1600     1650     1700   
                                           T        V       ECP      H0       H01     AOSYM     SMH    MOLCAS    OPER   

 PROGRAMS   *        TOTAL       INT
 CPU TIMES  *        75.17     74.74
 REAL TIME  *        78.72 SEC
 DISK USED  *         3.76 GB      
 GA USED    *         0.00 MB       (max)       0.00 MB       (current)
 **********************************************************************************************************************************


 PROGRAM * RHF-SCF (OPEN SHELL)       Authors: W. Meyer, H.-J. Werner


 NUMBER OF ELECTRONS:      10+    8-    SPACE SYMMETRY=1    SPIN SYMMETRY: Triplet 
 CONVERGENCE THRESHOLDS:    1.00E-05 (Density)    1.00E-07 (Energy)
 MAX. NUMBER OF ITERATIONS:       60
 INTERPOLATION TYPE:            DIIS
 INTERPOLATION STEPS:              2 (START)      1 (STEP)
 LEVEL SHIFTS:                 -0.60 (CLOSED) -0.30 (OPEN) 

 Number of closed-shell orbitals:    8 (   2   1   1   1   1   1   1   0 )
 Number of open-shell orbitals:      2 (   2   0   0   0   0   0   0   0 )


 
 Extra symmetries of mos in symmetry 1:   1   3   2   1
 Orbital guess generated from atomic densities. Full valence occupancy:    4   1   1   1   1   1   1   0


 Molecular orbital dump at record        4202.2

 ITERATION    DDIFF          GRAD             ENERGY        2-EL.EN.            DIPOLE MOMENTS         DIIS   ORB.
    1      0.000D+00      0.000D+00      -118.98848810    187.165145    0.00000    0.00000    0.00000    0    start
    2      0.000D+00      0.142D-01      -119.05074512    181.237764    0.00000    0.00000    0.00000    1    diag,B
    3      0.433D-02      0.435D-02      -119.05478348    182.062956    0.00000    0.00000    0.00000    2    diag,B
    4      0.978D-03      0.553D-03      -119.05509459    181.940757    0.00000    0.00000    0.00000    3    diag,B
    5      0.294D-03      0.185D-03      -119.05516740    181.886130    0.00000    0.00000    0.00000    4    diag,B
    6      0.183D-03      0.585D-04      -119.05517926    181.865019    0.00000    0.00000    0.00000    5    diag,B
    7      0.132D-03      0.200D-04      -119.05518137    181.862321    0.00000    0.00000    0.00000    6    fixocc
    8      0.401D-04      0.112D-04      -119.05518260    181.860912    0.00000    0.00000    0.00000    7    diag,B
    9      0.179D-04      0.853D-05      -119.05518368    181.860856    0.00000    0.00000    0.00000    8    diag,B
   10      0.112D-04      0.746D-05      -119.05518592    181.860312    0.00000    0.00000    0.00000    9    orth
   11      0.207D-04      0.541D-05      -119.05518666    181.860578    0.00000    0.00000    0.00000    9    diag,B
   12      0.961D-05      0.488D-05      -119.05518700    181.860655    0.00000    0.00000    0.00000    9    diag,B
   13      0.422D-05      0.478D-05      -119.05518727    181.860669    0.00000    0.00000    0.00000    9    diag,B
   14      0.307D-05      0.474D-05      -119.05518791    181.860660    0.00000    0.00000    0.00000    9    diag,B
   15      0.523D-05      0.469D-05      -119.05519036    181.860667    0.00000    0.00000    0.00000    9    diag,B
   16      0.207D-04      0.449D-05      -119.05519686    181.860645    0.00000    0.00000    0.00000    9    diag,B
   17      0.619D-04      0.433D-05      -119.05519684    181.860661    0.00000    0.00000    0.00000    9    diag,B
   18      0.288D-06      0.429D-05      -119.05519706    181.860711    0.00000    0.00000    0.00000    0    orth

 Final alpha occupancy:   4   1   1   1   1   1   1   0
 Final beta  occupancy:   2   1   1   1   1   1   1   0

 !RHF STATE 1.1 Energy               -119.055197064785
 Nuclear energy                         0.00000000
 One-electron energy                 -209.98555241
 Two-electron energy                   90.93035535
 Virial quotient                       -2.91488051
 !RHF STATE 1.1 Dipole moment           0.00000000     0.00000000     0.00000000
 Dipole moment /Debye                   0.00000000     0.00000000     0.00000000

 ELECTRON ORBITALS
 =================


   Orb  Occ    Energy  Couls-En    Coefficients

                                   1 1s      1 1s      1 1s      1 1s      1 1s      1 1s      1 1s      1 1s      1 1s      1 1s   
                                   1 1s      1 1s      1 1s      1 1s      1 1s      1 1s      1 1s      1 1s      1 1s      1 1s   
                                   1 1s      1 1s      1 1s      1 1s      1 1s      1 1s      1 1s      1 1s      1 1s      1 1s   
                                   1 1s      1 1s      1 1s      1 3d0     1 3d2+    1 3d0     1 3d2+    1 3d0     1 3d2+    1 3d0  
                                   1 3d2+    1 3d0     1 3d2+    1 3d0     1 3d2+    1 3d0     1 3d2+    1 3d0     1 3d2+    1 3d0  
                                   1 3d2+    1 3d0     1 3d2+    1 3d0     1 3d2+    1 3d0     1 3d2+    1 3d0     1 3d2+    1 3d0  
                                   1 3d2+    1 3d0     1 3d2+    1 3d0     1 3d2+    1 3d0     1 3d2+    1 3d0     1 3d2+    1 5g0  
                                   1 5g4+    1 5g2+    1 5g0     1 5g4+    1 5g2+    1 5g0     1 5g4+    1 5g2+ 

   1.1   2    -4.3931  -20.3459 -0.000000  0.000000 -0.000000  0.000000 -0.000000  0.000001 -0.000002  0.000004 -0.000009  0.000019
                                -0.000040  0.000087 -0.000203  0.000499 -0.001284  0.003376 -0.008746  0.021322 -0.047066  0.093749
                                -0.173580  0.255062  0.037935 -0.844350  0.169399  0.802359  0.455911  0.025326  0.007300 -0.009957
                                 0.003421 -0.001315  0.000377 -0.000000 -0.000000  0.000000  0.000000 -0.000000 -0.000000  0.000000
                                 0.000000 -0.000001 -0.000000  0.000002  0.000000 -0.000005 -0.000001  0.000012  0.000002 -0.000026
                                -0.000005  0.000110  0.000030 -0.000496 -0.000155  0.000736  0.000205  0.001863  0.000637 -0.000669
                                 0.000076 -0.001166  0.000156 -0.001375  0.000034 -0.000361  0.000029  0.000009 -0.000003 -0.000039
                                 0.000000  0.000004 -0.000760 -0.000004  0.000073 -0.000451 -0.000002  0.000040

   2.1   2    -0.3938  -10.3168 -0.000000  0.000000 -0.000000  0.000000 -0.000000  0.000000 -0.000000  0.000000 -0.000000  0.000000
                                -0.000000  0.000000 -0.000000  0.000001 -0.000002  0.000004 -0.000010  0.000026 -0.000057  0.000117
                                -0.000225  0.000350  0.000032 -0.001248  0.000343  0.001157  0.002510  0.001197 -0.002046 -0.004101
                                -0.005478 -0.000400  0.000004 -0.000000 -0.000000  0.000000  0.000000 -0.000000 -0.000002  0.000001
                                 0.000008 -0.000002 -0.000026  0.000006  0.000076 -0.000014 -0.000190  0.000035  0.000472 -0.000032
                                -0.000425  0.000923  0.012301 -0.005545 -0.073934  0.006781  0.090379  0.023135  0.308305  0.011789
                                 0.157385  0.024679  0.329375  0.019847  0.265612  0.007881  0.105524 -0.000124 -0.001670  0.000082
                                 0.000162  0.000966  0.000226  0.000392  0.001822  0.000221  0.000531  0.002795

   3.1   +    -0.4754  -10.4652  0.000000 -0.000000  0.000000 -0.000000  0.000000 -0.000000  0.000000 -0.000000  0.000000 -0.000001
                                 0.000001 -0.000003  0.000007 -0.000018  0.000045 -0.000119  0.000308 -0.000748  0.001647 -0.003266
                                 0.006057 -0.009210  0.000094  0.030256 -0.008832 -0.045628 -0.020338  0.043737  0.008226  0.034865
                                 0.004438  0.000407 -0.000130 -0.000000  0.000000  0.000000 -0.000000 -0.000002  0.000000  0.000008
                                -0.000001 -0.000027  0.000002  0.000077 -0.000006 -0.000192  0.000014  0.000480 -0.000036 -0.000446
                                 0.000033  0.012422 -0.000926 -0.074316  0.005537  0.089567 -0.006680  0.311996 -0.023254  0.159624
                                -0.011864  0.336616 -0.024976  0.258532 -0.019143  0.087104 -0.006485 -0.004040  0.000296  0.002266
                                -0.000026  0.000114  0.005785 -0.000064  0.000276  0.006328 -0.000072  0.000327

   4.1   +    -0.2902   -6.6598  0.000000 -0.000000  0.000000 -0.000000  0.000000 -0.000000  0.000001 -0.000001  0.000003 -0.000006
                                 0.000013 -0.000029  0.000066 -0.000163  0.000419 -0.001104  0.002862 -0.006987  0.015462 -0.030955
                                 0.058052 -0.088319 -0.004247  0.298926 -0.082270 -0.372841 -0.307721  0.156840  0.195728  0.473386
                                 0.364141  0.021834  0.000348  0.000000 -0.000000 -0.000000  0.000000  0.000000 -0.000000 -0.000001
                                 0.000000  0.000002 -0.000000 -0.000006  0.000001  0.000016 -0.000003 -0.000039  0.000006  0.000038
                                -0.000006 -0.001010  0.000151  0.006090 -0.000891 -0.007556  0.001056 -0.026816  0.003477 -0.011329
                                 0.002189 -0.023450  0.004499 -0.010161  0.005134 -0.001905  0.002267  0.000355 -0.000054 -0.000623
                                 0.000001  0.000036  0.000454  0.000015 -0.000100  0.003119  0.000035 -0.000346

   5.1   0     0.0151   -1.5193  0.000000 -0.000000  0.000000 -0.000000  0.000000 -0.000000  0.000000 -0.000000  0.000001 -0.000001
                                 0.000003 -0.000006  0.000013 -0.000031  0.000079 -0.000202  0.000499 -0.001107  0.002040 -0.002766
                                 0.001969 -0.000422  0.016683 -0.060924  0.055606 -0.028679  0.141464 -0.486385  1.746984 -2.276657
                                 1.740298 -2.887351  2.711422 -0.000000 -0.000000  0.000000  0.000000 -0.000000 -0.000000  0.000000
                                 0.000000 -0.000000 -0.000000  0.000001  0.000000 -0.000003 -0.000000  0.000007  0.000001 -0.000012
                                -0.000002  0.000086  0.000007 -0.000447 -0.000031  0.000608  0.000049  0.001504  0.000055  0.001355
                                 0.000147  0.000576 -0.000108  0.000792 -0.000015 -0.001298 -0.000319  0.005046  0.000957  0.000069
                                 0.000000 -0.000005 -0.000100 -0.000001  0.000013 -0.000376 -0.000002  0.000040

   6.1   0     0.0745   -2.0309 -0.000000  0.000000 -0.000000  0.000000 -0.000000  0.000000 -0.000001  0.000002 -0.000004  0.000008
                                -0.000016  0.000035 -0.000082  0.000202 -0.000515  0.001339 -0.003393  0.007949 -0.016346  0.028721
                                -0.044091  0.059322 -0.048221 -0.011015 -0.115273  0.336065 -0.224352  1.444121 -5.768831  7.105549
                                -6.671918  7.138234 -3.132833 -0.000000 -0.000000  0.000000  0.000000 -0.000000 -0.000000  0.000000
                                 0.000000 -0.000002 -0.000000  0.000005  0.000001 -0.000012 -0.000002  0.000029  0.000004 -0.000056
                                -0.000009  0.000230  0.000023 -0.000977 -0.000067  0.001444  0.000127  0.001876 -0.000114  0.004309
                                 0.000551 -0.001195 -0.000639  0.002840  0.000142 -0.006740 -0.001391  0.027613  0.004913  0.000161
                                 0.000001 -0.000011 -0.000268 -0.000002  0.000032 -0.000898 -0.000006  0.000096

                                   1 2px     1 2px     1 2px     1 2px     1 2px     1 2px     1 2px     1 2px     1 2px     1 2px  
                                   1 2px     1 2px     1 2px     1 2px     1 2px     1 2px     1 2px     1 2px     1 2px     1 2px  
                                   1 2px     1 2px     1 2px     1 2px     1 2px     1 2px     1 4f1+    1 4f3+    1 4f1+    1 4f3+ 
                                   1 4f1+    1 4f3+    1 4f1+    1 4f3+    1 4f1+    1 4f3+    1 4f1+    1 4f3+    1 4f1+    1 4f3+ 
                                   1 4f1+    1 4f3+    1 4f1+    1 4f3+    1 4f1+    1 4f3+    1 4f1+    1 4f3+    1 4f1+    1 4f3+ 
                                   1 4f1+    1 4f3+    1 4f1+    1 4f3+    1 4f1+    1 4f3+    1 4f1+    1 4f3+    1 4f1+    1 4f3+ 


   1.2   2    -2.5516  -16.2436 -0.000000  0.000000 -0.000000  0.000000 -0.000000  0.000000 -0.000000  0.000001 -0.000002  0.000006
                                -0.000018  0.000054 -0.000185  0.000500 -0.000714  0.001049 -0.011402  0.100610 -0.313319 -0.000918
                                 0.526951  0.500224  0.148087 -0.000565  0.003606 -0.001084 -0.000000 -0.000000  0.000001  0.000000
                                -0.000004 -0.000000  0.000005  0.000001 -0.000008 -0.000001  0.000019  0.000002 -0.000030 -0.000003
                                 0.000134  0.000012 -0.000306 -0.000031  0.000987  0.000068  0.003445  0.000276  0.001926  0.000027
                                 0.002298  0.000031 -0.000146 -0.000067  0.000406  0.000006 -0.000175 -0.000013  0.000087  0.000006

   2.2   0     0.0286   -2.7216 -0.000000  0.000000 -0.000000  0.000000 -0.000000  0.000000 -0.000000  0.000002 -0.000005  0.000015
                                -0.000046  0.000147 -0.000611  0.002232 -0.004264  0.004204 -0.002834 -0.004223  0.022743  0.010041
                                -0.075180 -0.029279 -0.052803  0.216947 -0.122845  1.017927  0.000000  0.000000 -0.000000 -0.000000
                                 0.000000  0.000000 -0.000001 -0.000000  0.000001  0.000000 -0.000002 -0.000001  0.000005  0.000002
                                -0.000012 -0.000004  0.000027  0.000009 -0.000079 -0.000022  0.000024 -0.000013 -0.000217 -0.000038
                                 0.000874  0.000278 -0.000441 -0.000008  0.003031  0.000886 -0.003397 -0.000800  0.006941  0.001792

   3.2   0     0.1042   -3.4220  0.000000 -0.000000  0.000000 -0.000000  0.000000 -0.000000  0.000002 -0.000005  0.000017 -0.000053
                                 0.000162 -0.000518  0.002124 -0.007654  0.014445 -0.014293  0.014397 -0.033876  0.081578 -0.045005
                                -0.034264 -0.215005  0.170323 -0.213167  1.666823 -1.234313  0.000000  0.000000 -0.000000 -0.000000
                                 0.000000  0.000000 -0.000000 -0.000000  0.000000  0.000000 -0.000001 -0.000001  0.000002  0.000001
                                -0.000007 -0.000004  0.000022  0.000010 -0.000087 -0.000026 -0.000118 -0.000058 -0.000001  0.000008
                                 0.000978  0.000420  0.000550  0.000211  0.003521  0.001289  0.001298  0.000002  0.003489  0.001461

                                   1 2py     1 2py     1 2py     1 2py     1 2py     1 2py     1 2py     1 2py     1 2py     1 2py  
                                   1 2py     1 2py     1 2py     1 2py     1 2py     1 2py     1 2py     1 2py     1 2py     1 2py  
                                   1 2py     1 2py     1 2py     1 2py     1 2py     1 2py     1 4f1-    1 4f3-    1 4f1-    1 4f3- 
                                   1 4f1-    1 4f3-    1 4f1-    1 4f3-    1 4f1-    1 4f3-    1 4f1-    1 4f3-    1 4f1-    1 4f3- 
                                   1 4f1-    1 4f3-    1 4f1-    1 4f3-    1 4f1-    1 4f3-    1 4f1-    1 4f3-    1 4f1-    1 4f3- 
                                   1 4f1-    1 4f3-    1 4f1-    1 4f3-    1 4f1-    1 4f3-    1 4f1-    1 4f3-    1 4f1-    1 4f3- 


   1.3   2    -2.5502  -16.2405 -0.000000  0.000000 -0.000000  0.000000 -0.000000  0.000000 -0.000000  0.000001 -0.000002  0.000006
                                -0.000018  0.000054 -0.000187  0.000505 -0.000722  0.001057 -0.011404  0.100582 -0.313252 -0.000751
                                 0.526520  0.499827  0.148782 -0.000274  0.003611 -0.001081 -0.000000 -0.000000  0.000001  0.000000
                                -0.000004 -0.000000  0.000005  0.000001 -0.000008 -0.000001  0.000018  0.000002 -0.000030 -0.000004
                                 0.000130  0.000013 -0.000302 -0.000033  0.000933  0.000075  0.003286  0.000302  0.001655  0.000051
                                 0.001988  0.000060 -0.000212 -0.000064  0.000353  0.000011 -0.000165 -0.000014  0.000082  0.000007

   2.3   0     0.0293   -2.6935 -0.000000  0.000000 -0.000000  0.000000 -0.000000  0.000000 -0.000000  0.000002 -0.000005  0.000015
                                -0.000047  0.000151 -0.000626  0.002287 -0.004367  0.004306 -0.002948 -0.003874  0.021811  0.010361
                                -0.074246 -0.026851 -0.054233  0.215408 -0.136994  1.029756  0.000000  0.000000 -0.000000 -0.000000
                                 0.000001  0.000000 -0.000001 -0.000000  0.000001  0.000000 -0.000003 -0.000001  0.000006  0.000002
                                -0.000015 -0.000004  0.000035  0.000009 -0.000094 -0.000021  0.000001 -0.000010 -0.000228 -0.000042
                                 0.001079  0.000269 -0.000405 -0.000025  0.003605  0.000868 -0.003919 -0.000817  0.008081  0.001794

   3.3   0     0.1056   -3.4314  0.000000 -0.000000  0.000000 -0.000000  0.000000 -0.000000  0.000002 -0.000005  0.000017 -0.000054
                                 0.000163 -0.000523  0.002144 -0.007725  0.014580 -0.014427  0.014512 -0.033997  0.081698 -0.045420
                                -0.033338 -0.215299  0.171399 -0.221179  1.675289 -1.226898  0.000000  0.000000 -0.000000 -0.000000
                                 0.000000  0.000000 -0.000001 -0.000000  0.000001  0.000000 -0.000002 -0.000001  0.000004  0.000001
                                -0.000012 -0.000004  0.000034  0.000010 -0.000114 -0.000026 -0.000170 -0.000052 -0.000006 -0.000002
                                 0.001430  0.000418  0.000612  0.000174  0.004745  0.001303  0.000608 -0.000082  0.005402  0.001566

                                   1 3d2-    1 3d2-    1 3d2-    1 3d2-    1 3d2-    1 3d2-    1 3d2-    1 3d2-    1 3d2-    1 3d2- 
                                   1 3d2-    1 3d2-    1 3d2-    1 3d2-    1 3d2-    1 3d2-    1 3d2-    1 3d2-    1 5g2-    1 5g4- 
                                   1 5g2-    1 5g4-    1 5g2-    1 5g4- 

   1.4   2    -0.3940  -10.3177 -0.000000  0.000000 -0.000002  0.000008 -0.000026  0.000076 -0.000190  0.000474 -0.000426  0.012337
                                -0.074148  0.090638  0.309201  0.157841  0.330336  0.266348  0.105767 -0.001686  0.000959  0.000163
                                 0.001806  0.000393  0.002770  0.000532

   2.4   0     0.1122   -2.3718 -0.000000  0.000001 -0.000005  0.000020 -0.000069  0.000204 -0.000537  0.001249 -0.002690  0.004233
                                -0.003433  0.015464 -0.130997  0.167299 -0.235017  0.180921 -0.411410  1.214109 -0.000026 -0.000019
                                -0.000123 -0.000099  0.000015  0.000022

   3.4   0     0.3889   -3.5208  0.000000 -0.000003  0.000017 -0.000072  0.000248 -0.000736  0.001931 -0.004508  0.009279 -0.022880
                                 0.064498 -0.119251  0.225319 -0.700253  0.592175 -0.900234  1.824828 -0.840871 -0.000055 -0.000048
                                -0.000482 -0.000374  0.000450  0.000327

                                   1 2pz     1 2pz     1 2pz     1 2pz     1 2pz     1 2pz     1 2pz     1 2pz     1 2pz     1 2pz  
                                   1 2pz     1 2pz     1 2pz     1 2pz     1 2pz     1 2pz     1 2pz     1 2pz     1 2pz     1 2pz  
                                   1 2pz     1 2pz     1 2pz     1 2pz     1 2pz     1 2pz     1 4f0     1 4f2+    1 4f0     1 4f2+ 
                                   1 4f0     1 4f2+    1 4f0     1 4f2+    1 4f0     1 4f2+    1 4f0     1 4f2+    1 4f0     1 4f2+ 
                                   1 4f0     1 4f2+    1 4f0     1 4f2+    1 4f0     1 4f2+    1 4f0     1 4f2+    1 4f0     1 4f2+ 
                                   1 4f0     1 4f2+    1 4f0     1 4f2+    1 4f0     1 4f2+    1 4f0     1 4f2+    1 4f0     1 4f2+ 


   1.5   2    -2.5570  -16.2565 -0.000000  0.000000 -0.000000  0.000000 -0.000000  0.000000 -0.000000  0.000001 -0.000002  0.000006
                                -0.000018  0.000053 -0.000181  0.000483 -0.000683  0.001023 -0.011403  0.100732 -0.313561 -0.001801
                                 0.529033  0.501738  0.145136 -0.001643  0.003584 -0.001093 -0.000000 -0.000000  0.000000  0.000000
                                -0.000001 -0.000001  0.000001  0.000001 -0.000001 -0.000001  0.000003  0.000003 -0.000013 -0.000004
                                 0.000013  0.000019 -0.000088 -0.000042 -0.000089  0.000130 -0.000172  0.000480 -0.001890  0.000263
                                -0.002063  0.000301 -0.000682 -0.000029 -0.000339  0.000052  0.000020 -0.000024 -0.000015  0.000012

   2.5   0     0.0257   -2.8518 -0.000000  0.000000 -0.000000  0.000000 -0.000000  0.000000 -0.000000  0.000001 -0.000004  0.000013
                                -0.000041  0.000131 -0.000544  0.001994 -0.003817  0.003761 -0.002334 -0.005819  0.027058  0.008695
                                -0.079875 -0.040641 -0.045552  0.225677 -0.062855  0.965127  0.000000  0.000000 -0.000000 -0.000000
                                 0.000001  0.000000 -0.000002 -0.000000  0.000003  0.000000 -0.000006 -0.000000  0.000014  0.000001
                                -0.000036 -0.000002  0.000089  0.000005 -0.000199 -0.000013 -0.000370  0.000005  0.000047 -0.000040
                                 0.002347  0.000172  0.000930 -0.000045  0.006168  0.000621 -0.004272 -0.000571  0.010844  0.001286

   3.5   0     0.0981   -3.3795  0.000000 -0.000000  0.000000 -0.000000  0.000000 -0.000000  0.000001 -0.000005  0.000017 -0.000051
                                 0.000156 -0.000498  0.002041 -0.007353  0.013875 -0.013730  0.013917 -0.033426  0.081259 -0.043194
                                -0.038697 -0.214487  0.167482 -0.177949  1.625768 -1.264999  0.000000  0.000000 -0.000000 -0.000000
                                 0.000001  0.000000 -0.000002 -0.000000  0.000002  0.000000 -0.000006 -0.000000  0.000013  0.000000
                                -0.000036 -0.000001  0.000103  0.000003 -0.000244 -0.000011 -0.000803 -0.000026  0.000568  0.000007
                                 0.003633  0.000158  0.002738  0.000182  0.008817  0.000619  0.000807  0.000471  0.008252  0.000356

                                   1 3d1+    1 3d1+    1 3d1+    1 3d1+    1 3d1+    1 3d1+    1 3d1+    1 3d1+    1 3d1+    1 3d1+ 
                                   1 3d1+    1 3d1+    1 3d1+    1 3d1+    1 3d1+    1 3d1+    1 3d1+    1 3d1+    1 5g1+    1 5g3+ 
                                   1 5g1+    1 5g3+    1 5g1+    1 5g3+ 

   1.6   2    -0.4223  -10.3920 -0.000000  0.000000 -0.000002  0.000008 -0.000026  0.000077 -0.000191  0.000476 -0.000430  0.012436
                                -0.074715  0.091050  0.312496  0.158948  0.334042  0.262136  0.097019 -0.002877  0.000966  0.000134
                                 0.002150  0.000297  0.002603  0.000426

   2.6   0     0.1108   -2.3746 -0.000000  0.000001 -0.000005  0.000020 -0.000068  0.000201 -0.000531  0.001233 -0.002654  0.004204
                                -0.003553  0.015473 -0.128667  0.165460 -0.231361  0.179859 -0.402558  1.210138 -0.000118 -0.000008
                                -0.000504 -0.000049  0.000100  0.000018

   3.6   0     0.3838   -3.5089  0.000000 -0.000003  0.000017 -0.000071  0.000245 -0.000726  0.001904 -0.004445  0.009151 -0.022551
                                 0.063522 -0.117489  0.222445 -0.690637  0.583937 -0.884308  1.820654 -0.844783 -0.000332 -0.000017
                                -0.001875 -0.000188  0.001517  0.000191

                                   1 3d1-    1 3d1-    1 3d1-    1 3d1-    1 3d1-    1 3d1-    1 3d1-    1 3d1-    1 3d1-    1 3d1- 
                                   1 3d1-    1 3d1-    1 3d1-    1 3d1-    1 3d1-    1 3d1-    1 3d1-    1 3d1-    1 5g1-    1 5g3- 
                                   1 5g1-    1 5g3-    1 5g1-    1 5g3- 

   1.7   2    -0.4176  -10.3800 -0.000000  0.000000 -0.000002  0.000008 -0.000026  0.000077 -0.000191  0.000476 -0.000430  0.012421
                                -0.074628  0.090990  0.311979  0.158772  0.333423  0.262833  0.098429 -0.002703  0.001038  0.000136
                                 0.002346  0.000298  0.002845  0.000434

   2.7   0     0.1111   -2.3738 -0.000000  0.000001 -0.000005  0.000020 -0.000068  0.000202 -0.000532  0.001236 -0.002662  0.004213
                                -0.003544  0.015491 -0.129075  0.165864 -0.232024  0.180170 -0.404299  1.210930 -0.000133 -0.000007
                                -0.000574 -0.000047  0.000111  0.000017

   3.7   0     0.3848   -3.5105  0.000000 -0.000003  0.000017 -0.000072  0.000246 -0.000728  0.001909 -0.004458  0.009176 -0.022613
                                 0.063696 -0.117811  0.223066 -0.692485  0.585642 -0.887214  1.821438 -0.843988 -0.000371 -0.000016
                                -0.002135 -0.000181  0.001727  0.000184

                                   1 4f2-    1 4f2-    1 4f2-    1 4f2-    1 4f2-    1 4f2-    1 4f2-    1 4f2-    1 4f2-    1 4f2- 
                                   1 4f2-    1 4f2-    1 4f2-    1 4f2-    1 4f2-    1 4f2-    1 4f2- 

   1.8   0     0.1571   -1.9533  0.000003 -0.000049  0.000164 -0.000224  0.000330 -0.000746  0.001678 -0.003487  0.006991 -0.014759
                                 0.056513 -0.119590  0.272808 -0.483173  0.800411 -2.123209  2.506737

   2.8   0     0.3777   -2.4303 -0.000006  0.000091 -0.000301  0.000413 -0.000606  0.001374 -0.003062  0.006524 -0.012992  0.027716
                                -0.097444  0.228987 -0.493141  0.946033 -1.521150  4.007245 -2.600375

 HOMO      4.1    -0.290246 =      -7.8980eV
 LUMO      5.1     0.015142 =       0.4120eV
 LUMO-HOMO         0.305389 =       8.3101eV


 **********************************************************************************************************************************
 DATASETS  * FILE   NREC   LENGTH (MB)   RECORD NAMES
              1      19       20.81       500      610      700      900      950      970     1000      129      960     1100   
                                          VAR    BASINP    GEOM    SYMINP    ZMAT    AOBASIS   BASIS     P2S    ABASIS      S 
                                         1400     1410     1420     1200     1210     1080     1600     1650     1700   
                                           T        V       ECP      H0       H01     AOSYM     SMH    MOLCAS    OPER   

              2       5        5.93       200      700     1000      520     4202   
                                        OPTIONS   GEOM     BASIS   MCVARS     RHF  

 PROGRAMS   *        TOTAL       RHF       INT
 CPU TIMES  *        77.05      1.88     74.74
 REAL TIME  *        81.17 SEC
 DISK USED  *         4.08 GB      
 SF USED    *         0.08 MB      
 GA USED    *         0.00 MB       (max)       0.00 MB       (current)
 **********************************************************************************************************************************


 PROGRAM * POP (Mulliken population analysis)

 
 Density matrix read from record         4202.2  Type=RHF/CHARGE (state 1.1)
 
 Population analysis by basis function type

 Unique atom        s        p        d        f        g    Total    Charge
   1  PT      3.00031  5.99976  8.99935  0.00024  0.00034 18.00000  - 0.00000


 **********************************************************************************************************************************
 DATASETS  * FILE   NREC   LENGTH (MB)   RECORD NAMES
              1      19       20.81       500      610      700      900      950      970     1000      129      960     1100   
                                          VAR    BASINP    GEOM    SYMINP    ZMAT    AOBASIS   BASIS     P2S    ABASIS      S 
                                         1400     1410     1420     1200     1210     1080     1600     1650     1700   
                                           T        V       ECP      H0       H01     AOSYM     SMH    MOLCAS    OPER   

              2       5        5.93       200      700     1000      520     4202   
                                        OPTIONS   GEOM     BASIS   MCVARS     RHF  

 PROGRAMS   *        TOTAL       POP       RHF       INT
 CPU TIMES  *        77.05      0.00      1.88     74.74
 REAL TIME  *        81.18 SEC
 DISK USED  *         4.08 GB      
 SF USED    *         0.08 MB      
 GA USED    *         0.00 MB       (max)       0.00 MB       (current)
 **********************************************************************************************************************************


 PROGRAM * MULTI (Direct Multiconfiguration SCF)       Authors: P.J. Knowles, H.-J. Werner (1984)     S.T. Elbert (1988)


 Number of closed-shell orbitals:   4 (   1   1   1   0   1   0   0   0 )
 Number of active  orbitals:        6 (   3   0   0   1   0   1   1   0 )
 Number of external orbitals:     337 (  74  59  59  23  59  23  23  17 )

 State symmetry 1

 Orbital occupancy restrictions for symmetry 1
  1      1       002000                          

 Number of electrons:    10    Spin symmetry=Triplet   Space symmetry=1
 Number of states:        2
 Number of CSFs:          2

 State symmetry 2

 Orbital occupancy restrictions for symmetry 4
  1      1       002000                          

 Number of electrons:    10    Spin symmetry=Triplet   Space symmetry=4
 Number of states:        1
 Number of CSFs:          1

 State symmetry 3

 Orbital occupancy restrictions for symmetry 6
  1      1       002000                          

 Number of electrons:    10    Spin symmetry=Triplet   Space symmetry=6
 Number of states:        1
 Number of CSFs:          1

 State symmetry 4

 Orbital occupancy restrictions for symmetry 7
  1      1       002000                          

 Number of electrons:    10    Spin symmetry=Triplet   Space symmetry=7
 Number of states:        1
 Number of CSFs:          1
 
 Maximum number of shells:             3
 Maximum number of spin couplings:     9

 Storage for configuration lists      85, coupling coefficients    698, address lists    340

 Molecular orbitals read from record     4202.2  Type=RHF/CANONICAL (state 1.1)
 *** IN SYMMETRY 1 ORBITAL  1 SYMMETRY CONTAMINATION OF 0.321D-02 HAS BEEN REMOVED
 *** IN SYMMETRY 1 ORBITAL  2 SYMMETRY CONTAMINATION OF 0.864D-01 HAS BEEN REMOVED
 *** IN SYMMETRY 1 ORBITAL  3 SYMMETRY CONTAMINATION OF 0.200D+00 HAS BEEN REMOVED
 *** IN SYMMETRY 1 ORBITAL  4 SYMMETRY CONTAMINATION OF 0.436D-01 HAS BEEN REMOVED

 EXTRA SYMMETRY OF MOS IN SYMMETRY 1:   1 3 2 1 1 1 2 3 1 2   3 1 2 3 1 4 6 5 2 3   1 4 6 5 2 3 4 6 5 1   2 3 1 2 3 2 3 1 2 3
                                        1 2 3 1 2 3 1 1 2 3   1 1 2 3 1 2 3 1 1 2   3 1 2 3 1 1 2 3 1 1   1 1 1 1 1 1 1 1
 *** IN SYMMETRY 2 ORBITAL  1 SYMMETRY CONTAMINATION OF 0.650D-02 HAS BEEN REMOVED
 EXTRA SYMMETRY OF MOS IN SYMMETRY 2:   1 1 1 2 3 2 3 1 2 3   2 3 1 2 3 2 3 1 2 3   1 2 3 2 3 1 2 3 1 2   3 1 2 3 1 1 2 3 1 2
                                        3 1 2 3 1 1 2 3 1 2   3 1 1 1 1 1 1 1 1 1
 *** IN SYMMETRY 3 ORBITAL  1 SYMMETRY CONTAMINATION OF 0.606D-02 HAS BEEN REMOVED
 EXTRA SYMMETRY OF MOS IN SYMMETRY 3:   1 1 1 2 3 2 3 1 2 3   2 3 1 2 3 2 3 1 2 3   1 2 3 2 3 1 2 3 1 2   3 1 2 3 1 1 2 3 1 2
                                        3 1 2 3 1 1 2 3 1 2   3 1 1 1 1 1 1 1 1 1
 *** IN SYMMETRY 4 ORBITAL  1 SYMMETRY CONTAMINATION OF 0.488D-02 HAS BEEN REMOVED
 EXTRA SYMMETRY OF MOS IN SYMMETRY 4:   1 1 1 1 2 3 1 2 3 1   2 3 1 1 1 1 1 1 1 1   1 1 1 1
 *** IN SYMMETRY 5 ORBITAL  1 SYMMETRY CONTAMINATION OF 0.417D-02 HAS BEEN REMOVED
 EXTRA SYMMETRY OF MOS IN SYMMETRY 5:   1 1 1 2 3 2 3 1 2 3   2 3 1 2 3 2 3 1 2 3   1 2 3 2 3 1 2 3 1 2   3 1 2 3 1 1 2 3 1 2
                                        3 1 2 3 1 1 2 3 1 2   3 1 1 1 1 1 1 1 1 1
 *** IN SYMMETRY 6 ORBITAL  1 SYMMETRY CONTAMINATION OF 0.486D-02 HAS BEEN REMOVED
 EXTRA SYMMETRY OF MOS IN SYMMETRY 6:   1 1 1 1 2 3 1 2 3 1   2 3 1 1 1 1 1 1 1 1   1 1 1 1
 *** IN SYMMETRY 7 ORBITAL  1 SYMMETRY CONTAMINATION OF 0.524D-02 HAS BEEN REMOVED
 EXTRA SYMMETRY OF MOS IN SYMMETRY 7:   1 1 1 1 2 3 1 2 3 1   2 3 1 1 1 1 1 1 1 1   1 1 1 1

 Wavefunction dump at record             5202.2

 Convergence thresholds  0.10E-01 (gradient)  0.10E-05 (energy)  0.10E-02 (step length)

 Weight factors for state symmetry  1:    0.20000   0.20000
 Weight factors for state symmetry  2:    0.20000
 Weight factors for state symmetry  3:    0.20000
 Weight factors for state symmetry  4:    0.20000

 Eigenvalues of redundancy matrix
   1-  3    0.000000    3.000000    4.000000

 Non-redundant active-active orbital rotations:
     1  2  3  4  5
  2   
  3  +  +
  4         
  5            
  6               

 Number of orbital rotations:      547   (     3 Core/Active    251 Core/Virtual   2 Active/Active    291 Active/Virtual)
 Total number of variables:        554


 ITER. MIC  NCI  NEG     ENERGY(VAR)     ENERGY(PROJ)   ENERGY CHANGE     GRAD(0)  GRAD(ORB)   GRAD(CI)     STEP       TIME

   1   27   16    0    -119.05164550    -119.05209226   -0.00044676    0.03101426 0.00000000 0.00000000  0.20D-01      0.40
   2   24   20    0    -119.05209241    -119.05209241   -0.00000000    0.00007988 0.00000000 0.00000000  0.96D-04      0.80

 ** WVFN ****  CONVERGENCE REACHED, FINAL GRADIENT:  0.14D-08



 Results for state 1.1
 =====================

 !MCSCF STATE 1.1 Energy             -119.052092413724
 Nuclear energy                         0.00000000
 Kinetic energy                        40.84043008
 One electron energy                 -209.98847004
 Two electron energy                   90.93637763
 Virial ratio                           3.91505482

 !MCSCF STATE 1.1 Dipole moment         0.00000000     0.00000000     0.00000000
 Dipole moment /Debye                   0.00000000     0.00000000     0.00000000

 Results for state 2.1
 =====================

 !MCSCF STATE 2.1 Energy             -119.052092413707
 Nuclear energy                         0.00000000
 Kinetic energy                        40.84043008
 One electron energy                 -209.98847004
 Two electron energy                   90.93637763
 Virial ratio                           3.91505482

 !MCSCF STATE 2.1 Dipole moment         0.00000000     0.00000000     0.00000000
 Dipole moment /Debye                   0.00000000     0.00000000     0.00000000



 Results for state 1.4
 =====================

 !MCSCF STATE 1.4 Energy             -119.052092413707
 Nuclear energy                         0.00000000
 Kinetic energy                        40.84043008
 One electron energy                 -209.98847004
 Two electron energy                   90.93637763
 Virial ratio                           3.91505482

 !MCSCF STATE 1.4 Dipole moment         0.00000000     0.00000000     0.00000000
 Dipole moment /Debye                   0.00000000     0.00000000     0.00000000



 Results for state 1.6
 =====================

 !MCSCF STATE 1.6 Energy             -119.052092413720
 Nuclear energy                         0.00000000
 Kinetic energy                        40.84043008
 One electron energy                 -209.98847004
 Two electron energy                   90.93637763
 Virial ratio                           3.91505482

 !MCSCF STATE 1.6 Dipole moment         0.00000000     0.00000000     0.00000000
 Dipole moment /Debye                   0.00000000     0.00000000     0.00000000



 Results for state 1.7
 =====================

 !MCSCF STATE 1.7 Energy             -119.052092413720
 Nuclear energy                         0.00000000
 Kinetic energy                        40.84043008
 One electron energy                 -209.98847004
 Two electron energy                   90.93637763
 Virial ratio                           3.91505482

 !MCSCF STATE 1.7 Dipole moment         0.00000000     0.00000000     0.00000000
 Dipole moment /Debye                   0.00000000     0.00000000     0.00000000

 State-averaged charge density matrix saved on record  5202.2 (density set 1)


 NATURAL ORBITALS (state averaged)
 =================================

   Orb     Occ        Energy       Coefficients

                                   1 1s      1 1s      1 1s      1 1s      1 1s      1 1s      1 1s      1 1s      1 1s      1 1s   
                                   1 1s      1 1s      1 1s      1 1s      1 1s      1 1s      1 1s      1 1s      1 1s      1 1s   
                                   1 1s      1 1s      1 1s      1 1s      1 1s      1 1s      1 1s      1 1s      1 1s      1 1s   
                                   1 1s      1 1s      1 1s      1 3d0     1 3d2+    1 3d0     1 3d2+    1 3d0     1 3d2+    1 3d0  
                                   1 3d2+    1 3d0     1 3d2+    1 3d0     1 3d2+    1 3d0     1 3d2+    1 3d0     1 3d2+    1 3d0  
                                   1 3d2+    1 3d0     1 3d2+    1 3d0     1 3d2+    1 3d0     1 3d2+    1 3d0     1 3d2+    1 3d0  
                                   1 3d2+    1 3d0     1 3d2+    1 3d0     1 3d2+    1 3d0     1 3d2+    1 3d0     1 3d2+    1 5g0  
                                   1 5g4+    1 5g2+    1 5g0     1 5g4+    1 5g2+    1 5g0     1 5g4+    1 5g2+ 

   1.1  2.00000    -4.393134    -0.000000  0.000000 -0.000000  0.000000 -0.000000  0.000001 -0.000002  0.000004 -0.000009  0.000019
                                -0.000040  0.000087 -0.000203  0.000499 -0.001284  0.003376 -0.008746  0.021321 -0.047064  0.093745
                                -0.173573  0.255052  0.037939 -0.844332  0.169407  0.802303  0.455879  0.025463  0.007285 -0.009948
                                 0.003336 -0.001319  0.000377  0.000000  0.000000  0.000000  0.000000  0.000000  0.000000  0.000000
                                 0.000000  0.000000  0.000000  0.000000  0.000000  0.000000  0.000000  0.000000  0.000000  0.000000
                                 0.000000  0.000000  0.000000  0.000000  0.000000  0.000000  0.000000  0.000000  0.000000  0.000000
                                 0.000000  0.000000  0.000000  0.000000  0.000000  0.000000  0.000000  0.000000  0.000000  0.000000
                                 0.000000  0.000000  0.000000  0.000000  0.000000  0.000000  0.000000  0.000000

   2.1  1.80000    -0.359123     0.000000  0.000000  0.000000  0.000000  0.000000  0.000000  0.000000  0.000000  0.000000  0.000000
                                 0.000000  0.000000  0.000000  0.000000  0.000000  0.000000  0.000000  0.000000  0.000000  0.000000
                                 0.000000  0.000000  0.000000  0.000000  0.000000  0.000000  0.000000  0.000000  0.000000  0.000000
                                 0.000000  0.000000  0.000000 -0.000000  0.000000  0.000000  0.000000 -0.000002  0.000000  0.000008
                                 0.000000 -0.000026  0.000000  0.000077  0.000000 -0.000191  0.000000  0.000476  0.000000 -0.000431
                                 0.000000  0.012396  0.000000 -0.074452  0.000000  0.090772  0.000000  0.311038  0.000000  0.158592
                                 0.000000  0.332611  0.000000  0.264079  0.000000  0.100248  0.000000 -0.002531  0.000000  0.000000
                                 0.000000  0.000000  0.000000  0.000000  0.000000  0.000000  0.000000  0.000000

   3.1  1.80000    -0.359123     0.000000  0.000000  0.000000  0.000000  0.000000  0.000000  0.000000  0.000000  0.000000  0.000000
                                 0.000000  0.000000  0.000000  0.000000  0.000000  0.000000  0.000000  0.000000  0.000000  0.000000
                                 0.000000  0.000000  0.000000  0.000000  0.000000  0.000000  0.000000  0.000000  0.000000  0.000000
                                 0.000000  0.000000  0.000000  0.000000 -0.000000  0.000000  0.000000  0.000000 -0.000002  0.000000
                                 0.000008  0.000000 -0.000026  0.000000  0.000077  0.000000 -0.000191  0.000000  0.000476  0.000000
                                -0.000431  0.000000  0.012396  0.000000 -0.074452  0.000000  0.090772  0.000000  0.311038  0.000000
                                 0.158592  0.000000  0.332611  0.000000  0.264079  0.000000  0.100248  0.000000 -0.002531  0.000000
                                 0.000000  0.000000  0.000000  0.000000  0.000000  0.000000  0.000000  0.000000

   4.1  1.00000    -0.137211     0.000000 -0.000000  0.000000 -0.000000  0.000000 -0.000000  0.000001 -0.000001  0.000003 -0.000006
                                 0.000013 -0.000029  0.000067 -0.000164  0.000422 -0.001110  0.002877 -0.007024  0.015543 -0.031116
                                 0.058353 -0.088780 -0.004253  0.300513 -0.082848 -0.375188 -0.308528  0.159264  0.196201  0.475591
                                 0.362891  0.021455  0.000357  0.000000  0.000000  0.000000  0.000000  0.000000  0.000000  0.000000
                                 0.000000  0.000000  0.000000  0.000000  0.000000  0.000000  0.000000  0.000000  0.000000  0.000000
                                 0.000000  0.000000  0.000000  0.000000  0.000000  0.000000  0.000000  0.000000  0.000000  0.000000
                                 0.000000  0.000000  0.000000  0.000000  0.000000  0.000000  0.000000  0.000000  0.000000  0.000000
                                 0.000000  0.000000  0.000000  0.000000  0.000000  0.000000  0.000000  0.000000

                                   1 2px     1 2px     1 2px     1 2px     1 2px     1 2px     1 2px     1 2px     1 2px     1 2px  
                                   1 2px     1 2px     1 2px     1 2px     1 2px     1 2px     1 2px     1 2px     1 2px     1 2px  
                                   1 2px     1 2px     1 2px     1 2px     1 2px     1 2px     1 4f1+    1 4f3+    1 4f1+    1 4f3+ 
                                   1 4f1+    1 4f3+    1 4f1+    1 4f3+    1 4f1+    1 4f3+    1 4f1+    1 4f3+    1 4f1+    1 4f3+ 
                                   1 4f1+    1 4f3+    1 4f1+    1 4f3+    1 4f1+    1 4f3+    1 4f1+    1 4f3+    1 4f1+    1 4f3+ 
                                   1 4f1+    1 4f3+    1 4f1+    1 4f3+    1 4f1+    1 4f3+    1 4f1+    1 4f3+    1 4f1+    1 4f3+ 


   1.2  2.00000    -2.552796    -0.000000  0.000000 -0.000000  0.000000 -0.000000  0.000000 -0.000000  0.000001 -0.000002  0.000006
                                -0.000018  0.000054 -0.000184  0.000496 -0.000706  0.001042 -0.011403  0.100645 -0.313391 -0.001156
                                 0.527540  0.500591  0.147329 -0.000824  0.003598 -0.001086  0.000000  0.000000  0.000000  0.000000
                                 0.000000  0.000000  0.000000  0.000000  0.000000  0.000000  0.000000  0.000000  0.000000  0.000000
                                 0.000000  0.000000  0.000000  0.000000  0.000000  0.000000  0.000000  0.000000  0.000000  0.000000
                                 0.000000  0.000000  0.000000  0.000000  0.000000  0.000000  0.000000  0.000000  0.000000  0.000000

                                   1 2py     1 2py     1 2py     1 2py     1 2py     1 2py     1 2py     1 2py     1 2py     1 2py  
                                   1 2py     1 2py     1 2py     1 2py     1 2py     1 2py     1 2py     1 2py     1 2py     1 2py  
                                   1 2py     1 2py     1 2py     1 2py     1 2py     1 2py     1 4f1-    1 4f3-    1 4f1-    1 4f3- 
                                   1 4f1-    1 4f3-    1 4f1-    1 4f3-    1 4f1-    1 4f3-    1 4f1-    1 4f3-    1 4f1-    1 4f3- 
                                   1 4f1-    1 4f3-    1 4f1-    1 4f3-    1 4f1-    1 4f3-    1 4f1-    1 4f3-    1 4f1-    1 4f3- 
                                   1 4f1-    1 4f3-    1 4f1-    1 4f3-    1 4f1-    1 4f3-    1 4f1-    1 4f3-    1 4f1-    1 4f3- 


   1.3  2.00000    -2.552796    -0.000000  0.000000 -0.000000  0.000000 -0.000000  0.000000 -0.000000  0.000001 -0.000002  0.000006
                                -0.000018  0.000054 -0.000184  0.000496 -0.000706  0.001042 -0.011403  0.100645 -0.313391 -0.001156
                                 0.527540  0.500591  0.147329 -0.000824  0.003598 -0.001086  0.000000  0.000000  0.000000  0.000000
                                 0.000000  0.000000  0.000000  0.000000  0.000000  0.000000  0.000000  0.000000  0.000000  0.000000
                                 0.000000  0.000000  0.000000  0.000000  0.000000  0.000000  0.000000  0.000000  0.000000  0.000000
                                 0.000000  0.000000  0.000000  0.000000  0.000000  0.000000  0.000000  0.000000  0.000000  0.000000

                                   1 3d2-    1 3d2-    1 3d2-    1 3d2-    1 3d2-    1 3d2-    1 3d2-    1 3d2-    1 3d2-    1 3d2- 
                                   1 3d2-    1 3d2-    1 3d2-    1 3d2-    1 3d2-    1 3d2-    1 3d2-    1 3d2-    1 5g2-    1 5g4- 
                                   1 5g2-    1 5g4-    1 5g2-    1 5g4- 

   1.4  1.80000    -0.359123    -0.000000  0.000000 -0.000002  0.000008 -0.000026  0.000077 -0.000191  0.000476 -0.000431  0.012396
                                -0.074452  0.090772  0.311038  0.158592  0.332611  0.264079  0.100248 -0.002531  0.000000  0.000000
                                 0.000000  0.000000  0.000000  0.000000

                                   1 2pz     1 2pz     1 2pz     1 2pz     1 2pz     1 2pz     1 2pz     1 2pz     1 2pz     1 2pz  
                                   1 2pz     1 2pz     1 2pz     1 2pz     1 2pz     1 2pz     1 2pz     1 2pz     1 2pz     1 2pz  
                                   1 2pz     1 2pz     1 2pz     1 2pz     1 2pz     1 2pz     1 4f0     1 4f2+    1 4f0     1 4f2+ 
                                   1 4f0     1 4f2+    1 4f0     1 4f2+    1 4f0     1 4f2+    1 4f0     1 4f2+    1 4f0     1 4f2+ 
                                   1 4f0     1 4f2+    1 4f0     1 4f2+    1 4f0     1 4f2+    1 4f0     1 4f2+    1 4f0     1 4f2+ 
                                   1 4f0     1 4f2+    1 4f0     1 4f2+    1 4f0     1 4f2+    1 4f0     1 4f2+    1 4f0     1 4f2+ 


   1.5  2.00000    -2.552796    -0.000000  0.000000 -0.000000  0.000000 -0.000000  0.000000 -0.000000  0.000001 -0.000002  0.000006
                                -0.000018  0.000054 -0.000184  0.000496 -0.000706  0.001042 -0.011403  0.100645 -0.313391 -0.001156
                                 0.527540  0.500591  0.147329 -0.000824  0.003598 -0.001086  0.000000  0.000000  0.000000  0.000000
                                 0.000000  0.000000  0.000000  0.000000  0.000000  0.000000  0.000000  0.000000  0.000000  0.000000
                                 0.000000  0.000000  0.000000  0.000000  0.000000  0.000000  0.000000  0.000000  0.000000  0.000000
                                 0.000000  0.000000  0.000000  0.000000  0.000000  0.000000  0.000000  0.000000  0.000000  0.000000

                                   1 3d1+    1 3d1+    1 3d1+    1 3d1+    1 3d1+    1 3d1+    1 3d1+    1 3d1+    1 3d1+    1 3d1+ 
                                   1 3d1+    1 3d1+    1 3d1+    1 3d1+    1 3d1+    1 3d1+    1 3d1+    1 3d1+    1 5g1+    1 5g3+ 
                                   1 5g1+    1 5g3+    1 5g1+    1 5g3+ 

   1.6  1.80000    -0.359123    -0.000000  0.000000 -0.000002  0.000008 -0.000026  0.000077 -0.000191  0.000476 -0.000431  0.012396
                                -0.074452  0.090772  0.311038  0.158592  0.332611  0.264079  0.100248 -0.002531  0.000000  0.000000
                                 0.000000  0.000000  0.000000  0.000000

                                   1 3d1-    1 3d1-    1 3d1-    1 3d1-    1 3d1-    1 3d1-    1 3d1-    1 3d1-    1 3d1-    1 3d1- 
                                   1 3d1-    1 3d1-    1 3d1-    1 3d1-    1 3d1-    1 3d1-    1 3d1-    1 3d1-    1 5g1-    1 5g3- 
                                   1 5g1-    1 5g3-    1 5g1-    1 5g3- 

   1.7  1.80000    -0.359123    -0.000000  0.000000 -0.000002  0.000008 -0.000026  0.000077 -0.000191  0.000476 -0.000431  0.012396
                                -0.074452  0.090772  0.311038  0.158592  0.332611  0.264079  0.100248 -0.002531  0.000000  0.000000
                                 0.000000  0.000000  0.000000  0.000000
 

 EXTRA SYMMETRY OF MOS IN SYMMETRY 1:   1 2 3 1 1 1 2 3 1 3   2 1 2 3 1 6 5 4 3 2   1 5 6 4 3 2 5 4 6 1   3 2 1 3 2 2 3 1 3 2
                                        1 3 2 1 3 2 1 1 3 2   1 1 2 3 1 3 2 1 1 3   2 1 3 2 1 1 2 3 1 1   1 1 1 1 1 1 1 1
 EXTRA SYMMETRY OF MOS IN SYMMETRY 2:   1 1 1 2 3 2 3 1 3 2   2 3 1 2 3 2 3 1 3 2   1 3 2 3 2 1 3 2 1 3   2 1 3 2 1 1 3 2 1 3
                                        2 1 3 2 1 1 3 2 1 3   2 1 1 1 1 1 1 1 1 1
 EXTRA SYMMETRY OF MOS IN SYMMETRY 3:   1 1 1 3 2 3 2 1 2 3   2 3 1 2 3 2 3 1 3 2   1 3 2 3 2 1 3 2 1 3   2 1 3 2 1 1 2 3 1 3
                                        2 1 3 2 1 1 3 2 1 2   3 1 1 1 1 1 1 1 1 1
 EXTRA SYMMETRY OF MOS IN SYMMETRY 4:   1 1 1 1 2 3 1 3 2 1   3 2 1 1 1 1 1 1 1 1   1 1 1 1
 EXTRA SYMMETRY OF MOS IN SYMMETRY 5:   1 1 1 3 2 3 2 1 2 3   2 3 1 3 2 3 2 1 3 2   1 3 2 3 2 1 3 2 1 3   2 1 3 2 1 1 3 2 1 3
                                        2 1 3 2 1 1 2 3 1 2   3 1 1 1 1 1 1 1 1 1
 EXTRA SYMMETRY OF MOS IN SYMMETRY 6:   1 1 1 1 3 2 1 3 2 1   2 3 1 1 1 1 1 1 1 1   1 1 1 1
 EXTRA SYMMETRY OF MOS IN SYMMETRY 7:   1 1 1 1 3 2 1 3 2 1   2 3 1 1 1 1 1 1 1 1   1 1 1 1

 Natural orbital dump (state averaged) at molpro section  5202.2    (Orbital set 2)


 CI vector for state symmetry 1
 ==============================

 2// 2 2 2         -0.0039755   0.9999921
 /2/ 2 2 2          0.9999921   0.0039755

 TOTAL ENERGIES                      -119.05209241  -119.05209241

 CI vector for state symmetry 2
 ==============================

 22/ / 2 2          1.0000000

 TOTAL ENERGIES                      -119.05209241

 CI vector for state symmetry 3
 ==============================

 22/ 2 / 2          1.0000000

 TOTAL ENERGIES                      -119.05209241

 CI vector for state symmetry 4
 ==============================

 22/ 2 2 /          1.0000000

 TOTAL ENERGIES                      -119.05209241



 **********************************************************************************************************************************
 DATASETS  * FILE   NREC   LENGTH (MB)   RECORD NAMES
              1      20       31.67       500      610      700      900      950      970     1000      129      960     1100   
                                          VAR    BASINP    GEOM    SYMINP    ZMAT    AOBASIS   BASIS     P2S    ABASIS      S 
                                         1400     1410     1420     1200     1210     1080     1600     1650     1700     1380   
                                           T        V       ECP      H0       H01     AOSYM     SMH    MOLCAS    OPER     JKOP   

              2       6        9.11       200      700     1000      520     4202     5202   
                                        OPTIONS   GEOM     BASIS   MCVARS     RHF     MCSCF   

 PROGRAMS   *        TOTAL     MULTI       POP       RHF       INT
 CPU TIMES  *        78.34      1.28      0.00      1.88     74.74
 REAL TIME  *        83.64 SEC
 DISK USED  *         4.08 GB      
 SF USED    *        55.35 MB      
 GA USED    *         0.00 MB       (max)       0.00 MB       (current)
 **********************************************************************************************************************************


 PROGRAM * RHF-SCF (OPEN SHELL)       Authors: W. Meyer, H.-J. Werner


 NUMBER OF ELECTRONS:      10+    8-    SPACE SYMMETRY=1    SPIN SYMMETRY: Triplet 
 CONVERGENCE THRESHOLDS:    1.00E-05 (Density)    1.00E-07 (Energy)
 MAX. NUMBER OF ITERATIONS:        0
 INTERPOLATION TYPE:            DIIS
 INTERPOLATION STEPS:              2 (START)      1 (STEP)
 LEVEL SHIFTS:                 -0.60 (CLOSED) -0.30 (OPEN) 

 Number of closed-shell orbitals:    8 (   2   1   1   1   1   1   1   0 )
 Number of open-shell orbitals:      2 (   2   0   0   0   0   0   0   0 )


 Molecular orbitals read from record     5202.2  Type=MCSCF/NATURAL (state averaged)

 Molecular orbital dump at record        2105.2

 ITERATION    DDIFF          GRAD             ENERGY        2-EL.EN.            DIPOLE MOMENTS         DIIS   ORB.
    1      0.000D+00      0.000D+00      -119.05209241    181.872755    0.00000    0.00000    0.00000    0    start

 Final alpha occupancy:   4   1   1   1   1   1   1   0
 Final beta  occupancy:   2   1   1   1   1   1   1   0

 !RHF STATE 1.1 Energy               -119.052092413707
 Nuclear energy                         0.00000000
 One-electron energy                 -209.98847004
 Two-electron energy                   90.93637763
 Virial quotient                       -2.91505482
 !RHF STATE 1.1 Dipole moment           0.00000000     0.00000000     0.00000000
 Dipole moment /Debye                   0.00000000     0.00000000     0.00000000

 Orbital energies:

         1.1          2.1          3.1          4.1          5.1          6.1
     -4.393134    -0.359123    -0.359123    -0.137211     0.015742     0.077572

         1.2          2.2          3.2
     -2.552796     0.034190     0.119600

         1.3          2.3          3.3
     -2.552796     0.034190     0.119600

         1.4          2.4          3.4
     -0.359123     0.112578     0.393204

         1.5          2.5          3.5
     -2.552796     0.034190     0.119600

         1.6          2.6          3.6
     -0.359123     0.112578     0.393204

         1.7          2.7          3.7
     -0.359123     0.112578     0.393204

         1.8          2.8
      0.157321     0.379826

 HOMO      4.1    -0.137211 =      -3.7337eV
 LUMO      5.1     0.015742 =       0.4284eV
 LUMO-HOMO         0.152953 =       4.1621eV


 **********************************************************************************************************************************
 DATASETS  * FILE   NREC   LENGTH (MB)   RECORD NAMES
              1      20       31.67       500      610      700      900      950      970     1000      129      960     1100   
                                          VAR    BASINP    GEOM    SYMINP    ZMAT    AOBASIS   BASIS     P2S    ABASIS      S 
                                         1400     1410     1420     1200     1210     1080     1600     1650     1700     1380   
                                           T        V       ECP      H0       H01     AOSYM     SMH    MOLCAS    OPER     JKOP   

              2       7       12.62       200      700     1000      520     4202     5202     2105   
                                        OPTIONS   GEOM     BASIS   MCVARS     RHF     MCSCF     RHF  

 PROGRAMS   *        TOTAL       RHF     MULTI       POP       RHF       INT
 CPU TIMES  *        78.45      0.10      1.28      0.00      1.88     74.74
 REAL TIME  *        83.77 SEC
 DISK USED  *         4.08 GB      
 SF USED    *        55.35 MB      
 GA USED    *         0.00 MB       (max)       0.00 MB       (current)
 **********************************************************************************************************************************
 SETTING SCF(1)         =      -119.05209241  AU                              
 SETTING _CC_NORM_MAX   =         2.00000000                                  


 PROGRAM * CCSD (Restricted open-shell coupled cluster)     Authors: C. Hampel, H.-J. Werner, 1991, M. Deegan, P.J. Knowles, 1992


 Convergence thresholds:  THRVAR = 1.00D-08  THRDEN = 1.00D-06

 CCSD(T)     terms to be evaluated (factor= 1.000)


 Number of closed-shell orbitals:   8 (   2   1   1   1   1   1   1   0 )
 Number of active  orbitals:        2 (   2   0   0   0   0   0   0   0 )
 Number of external orbitals:     337 (  74  59  59  23  59  23  23  17 )

 Memory could be reduced to 87.56 Mwords without degradation in triples

 Number of N-1 electron functions:              18
 Number of N-2 electron functions:             153
 Number of singly external CSFs:               948
 Number of doubly external CSFs:           1703510
 Total number of CSFs:                     1704458

 Molecular orbitals read from record     2105.2  Type=RHF/CANONICAL (state 1.1)

 Integral transformation finished. Total CPU:   1.82 sec, npass=  1  Memory used:  16.30 MW

 Starting RMP2 calculation

 Wavefunction is spin-projected

 ITER.      SQ.NORM     CORR.ENERGY   TOTAL ENERGY   ENERGY CHANGE        DEN1      VAR(S)    VAR(P)  DIIS     TIME
   1      1.13454922    -0.66841280  -119.72050522    -0.66841280    -0.00148077  0.12D-04  0.59D-03  1  1     2.10
   2      1.13599121    -0.66999078  -119.72208319    -0.00157798    -0.00000436  0.19D-06  0.28D-05  2  2     2.27
   3      1.13607397    -0.67003786  -119.72213027    -0.00004708    -0.00000002  0.46D-08  0.11D-07  3  3     2.48
   4      1.13607651    -0.67003842  -119.72213083    -0.00000056    -0.00000000  0.19D-09  0.44D-10  4  4     3.24

 Norm of t1 vector:      0.04042372      S-energy:    -0.00522684      T1 diagnostic:  0.00529868
 Norm of t2 vector:      0.36666393      P-energy:    -0.66481157
                                         Alpha-Beta:  -0.45851006
                                         Alpha-Alpha: -0.12577775
                                         Beta-Beta:   -0.08052376

 Spin contamination <S**2-Sz**2-Sz>     0.00000000
  Reference energy                   -119.052092413707
  RHF-RMP2 correlation energy          -0.670038417938
 !RHF-RMP2 energy                    -119.722130831645
 (NB above energy spin projected)

 Starting RCCSD calculation

 ITER.      SQ.NORM     CORR.ENERGY   TOTAL ENERGY   ENERGY CHANGE        DEN1      VAR(S)    VAR(P)  DIIS     TIME
   1      1.11493595    -0.62748317  -119.67957558    -0.62748317    -0.01147801  0.21D-02  0.19D-02  1  1     4.78
   2      1.12325361    -0.63798864  -119.69008106    -0.01050547    -0.00073106  0.21D-03  0.24D-03  2  2     6.03
   3      1.12648423    -0.63897187  -119.69106428    -0.00098323    -0.00009425  0.79D-04  0.15D-04  3  3     7.13
   4      1.12836402    -0.63951860  -119.69161101    -0.00054673    -0.00001035  0.80D-05  0.20D-05  4  4     8.62
   5      1.12898375    -0.63964330  -119.69173572    -0.00012471    -0.00000094  0.87D-06  0.17D-06  5  5    10.64
   6      1.12913835    -0.63966045  -119.69175286    -0.00001714    -0.00000009  0.97D-07  0.19D-07  6  6    12.18
   7      1.12916586    -0.63966383  -119.69175624    -0.00000338    -0.00000004  0.58D-07  0.49D-08  6  2    13.82
   8      1.12917063    -0.63966373  -119.69175615     0.00000010    -0.00000003  0.46D-07  0.31D-08  6  1    15.06
   9      1.12917557    -0.63966384  -119.69175626    -0.00000011    -0.00000002  0.32D-07  0.25D-08  6  3    17.14
  10      1.12919188    -0.63966399  -119.69175641    -0.00000015    -0.00000001  0.80D-08  0.22D-08  6  4    18.91
  11      1.12920476    -0.63966363  -119.69175604     0.00000037    -0.00000000  0.68D-09  0.56D-09  6  5    20.76

 Norm of t1 vector:      0.08963681      S-energy:    -0.00513884      T1 diagnostic:  0.01433087
                                                                       D1 diagnostic:  0.04511298
 Norm of t2 vector:      0.34809482      P-energy:    -0.63452479
                                         Alpha-Beta:  -0.45422571
                                         Alpha-Alpha: -0.10957710
                                         Beta-Beta:   -0.07072198

 Spin contamination <S**2-Sz**2-Sz>     0.00000000

 Memory could be reduced to 91.25 Mwords without degradation in triples
 

  Correlated core orbitals:             1.1       1.2       1.3       1.5
  Orbital energies:                    -4.4256   -2.6121   -2.6121   -2.5556
 
  RCCSD core-core energy               -0.111013483836
  RCCSD core-valence energy            -0.223445108878
  RCCSD valence correlation energy     -0.305205034585
 

 RESULTS
 =======

  Reference energy                   -119.052092413707
  RCCSD singles energy                 -0.005138840077
  RCCSD pair energy                    -0.634524787221
  RCCSD correlation energy             -0.639663627299
  Triples (T) contribution             -0.024723568183
  Total correlation energy             -0.664387195482
 
  RHF-RCCSD energy                   -119.691756041005
  RHF-RCCSD[T] energy                -119.717025794456
  RHF-RCCSD-T energy                 -119.716297961135
 !RHF-RCCSD(T) energy                -119.716479609189

 Program statistics:

 Available memory in ccsd:              1023999000
 Min. memory needed in ccsd:               5129478
 Max. memory used in ccsd:                 7192315
 Max. memory used in cckext:               5654308 (11 integral passes)
 Max. memory used in cckint:              16298177 ( 1 integral passes)



 **********************************************************************************************************************************
 DATASETS  * FILE   NREC   LENGTH (MB)   RECORD NAMES
              1      20       31.67       500      610      700      900      950      970     1000      129      960     1100   
                                          VAR    BASINP    GEOM    SYMINP    ZMAT    AOBASIS   BASIS     P2S    ABASIS      S 
                                         1400     1410     1420     1200     1210     1080     1600     1650     1700     1380   
                                           T        V       ECP      H0       H01     AOSYM     SMH    MOLCAS    OPER     JKOP   

              2       7       12.62       200      700     1000      520     4202     5202     2105   
                                        OPTIONS   GEOM     BASIS   MCVARS     RHF     MCSCF     RHF  

 PROGRAMS   *        TOTAL  RCCSD(T)       RHF     MULTI       POP       RHF       INT
 CPU TIMES  *       124.92     46.40      0.10      1.28      0.00      1.88     74.74
 REAL TIME  *       177.55 SEC
 DISK USED  *         6.60 GB      
 SF USED    *         1.39 GB      
 GA USED    *         0.00 MB       (max)       0.00 MB       (current)
 **********************************************************************************************************************************
 SETTING CCSD(1)        =      -119.71647961  AU                              

 DO I                   =         2.00000000   

 Running procedure=EAS2D9


 PROGRAM * RHF-SCF (OPEN SHELL)       Authors: W. Meyer, H.-J. Werner


 NUMBER OF ELECTRONS:      10+    9-    SPACE SYMMETRY=1    SPIN SYMMETRY: Doublet 
 CONVERGENCE THRESHOLDS:    1.00E-05 (Density)    1.00E-07 (Energy)
 MAX. NUMBER OF ITERATIONS:       60
 INTERPOLATION TYPE:            DIIS
 INTERPOLATION STEPS:              2 (START)      1 (STEP)
 LEVEL SHIFTS:                 -0.60 (CLOSED) -0.30 (OPEN) 

 Number of closed-shell orbitals:    9 (   3   1   1   1   1   1   1   0 )
 Number of open-shell orbitals:      1 (   1   0   0   0   0   0   0   0 )


 
 Extra symmetries of mos in symmetry 1:   1   1   3   2
 Orbital guess generated from atomic densities. Full valence occupancy:    4   1   1   1   1   1   1   0


 Molecular orbital dump at record        4202.2

 ITERATION    DDIFF          GRAD             ENERGY        2-EL.EN.            DIPOLE MOMENTS         DIIS   ORB.
    1      0.000D+00      0.000D+00      -118.90854911    200.672694    0.00000    0.00000    0.00000    0    start
    2      0.000D+00      0.182D-01      -119.04235424    191.185557    0.00000    0.00000    0.00000    1    diag,B
    3      0.699D-02      0.689D-02      -119.05673795    192.126177    0.00000    0.00000    0.00000    2    diag,B
    4      0.204D-02      0.183D-02      -119.06334489    191.461994    0.00000    0.00000    0.00000    3    diag,B
    5      0.236D-02      0.102D-02      -119.06719477    190.985262    0.00000    0.00000    0.00000    4    diag,B
    6      0.310D-02      0.610D-03      -119.06932303    190.598305    0.00000    0.00000    0.00000    5    diag,B
    7      0.305D-02      0.346D-03      -119.07014332    190.419930    0.00000    0.00000    0.00000    6    fixocc
    8      0.236D-02      0.200D-03      -119.07045051    190.292841    0.00000    0.00000    0.00000    7    diag,B
    9      0.308D-02      0.120D-03      -119.07057885    190.234014    0.00000    0.00000    0.00000    8    diag,B
   10      0.247D-02      0.713D-04      -119.07062037    190.196790    0.00000    0.00000    0.00000    9    orth
   11      0.731D-03      0.527D-04      -119.07065867    190.178058    0.00000    0.00000    0.00000    9    diag,B
   12      0.240D-02      0.192D-04      -119.07066291    190.157323    0.00000    0.00000    0.00000    9    diag,B
   13      0.645D-03      0.110D-04      -119.07066375    190.160255    0.00000    0.00000    0.00000    9    diag,B
   14      0.109D-03      0.871D-05      -119.07066432    190.158672    0.00000    0.00000    0.00000    9    diag,B
   15      0.380D-04      0.837D-05      -119.07066498    190.159177    0.00000    0.00000    0.00000    9    diag,B
   16      0.110D-04      0.824D-05      -119.07066651    190.159218    0.00000    0.00000    0.00000    9    diag,B
   17      0.160D-04      0.807D-05      -119.07067001    190.159047    0.00000    0.00000    0.00000    9    diag,B
   18      0.226D-04      0.775D-05      -119.07068111    190.159397    0.00000    0.00000    0.00000    9    diag,B
   19      0.644D-04      0.683D-05      -119.07068390    190.159059    0.00000    0.00000    0.00000    9    diag,B
   20      0.182D-04      0.608D-05      -119.07069915    190.157479    0.00000    0.00000    0.00000    9    orth
   21      0.161D-03      0.185D-04      -119.07069944    190.158409    0.00000    0.00000    0.00000    9    diag,B
   22      0.864D-05      0.137D-04      -119.07070025    190.159761    0.00000    0.00000    0.00000    9    diag,B
   23      0.279D-04      0.741D-05      -119.07070042    190.159762    0.00000    0.00000    0.00000    9    diag,B
   24      0.125D-04      0.213D-05      -119.07070049    190.159208    0.00000    0.00000    0.00000    9    diag,B
   25      0.107D-04      0.158D-05      -119.07070051    190.158373    0.00000    0.00000    0.00000    9    diag,B
   26      0.598D-05      0.117D-05      -119.07070051    190.158421    0.00000    0.00000    0.00000    0    orth

 Final alpha occupancy:   4   1   1   1   1   1   1   0
 Final beta  occupancy:   3   1   1   1   1   1   1   0

 !RHF STATE 1.1 Energy               -119.070700506533
 Nuclear energy                         0.00000000
 One-electron energy                 -214.14991097
 Two-electron energy                   95.07921046
 Virial quotient                       -2.92115670
 !RHF STATE 1.1 Dipole moment           0.00000000     0.00000000     0.00000000
 Dipole moment /Debye                   0.00000000     0.00000000     0.00000000

 ELECTRON ORBITALS
 =================


   Orb  Occ    Energy  Couls-En    Coefficients

                                   1 1s      1 1s      1 1s      1 1s      1 1s      1 1s      1 1s      1 1s      1 1s      1 1s   
                                   1 1s      1 1s      1 1s      1 1s      1 1s      1 1s      1 1s      1 1s      1 1s      1 1s   
                                   1 1s      1 1s      1 1s      1 1s      1 1s      1 1s      1 1s      1 1s      1 1s      1 1s   
                                   1 1s      1 1s      1 1s      1 3d0     1 3d2+    1 3d0     1 3d2+    1 3d0     1 3d2+    1 3d0  
                                   1 3d2+    1 3d0     1 3d2+    1 3d0     1 3d2+    1 3d0     1 3d2+    1 3d0     1 3d2+    1 3d0  
                                   1 3d2+    1 3d0     1 3d2+    1 3d0     1 3d2+    1 3d0     1 3d2+    1 3d0     1 3d2+    1 3d0  
                                   1 3d2+    1 3d0     1 3d2+    1 3d0     1 3d2+    1 3d0     1 3d2+    1 3d0     1 3d2+    1 5g0  
                                   1 5g4+    1 5g2+    1 5g0     1 5g4+    1 5g2+    1 5g0     1 5g4+    1 5g2+ 

   1.1   2    -4.1655  -20.1204 -0.000000  0.000000 -0.000000  0.000000 -0.000000  0.000001 -0.000002  0.000004 -0.000009  0.000019
                                -0.000040  0.000087 -0.000203  0.000499 -0.001285  0.003379 -0.008754  0.021342 -0.047111  0.093840
                                -0.173755  0.255336  0.037944 -0.845327  0.169370  0.805668  0.453479  0.024066  0.009016 -0.010745
                                 0.003842 -0.001353  0.000421 -0.000000 -0.000000  0.000000  0.000000 -0.000000 -0.000000  0.000000
                                 0.000000 -0.000001 -0.000000  0.000002  0.000000 -0.000005 -0.000000  0.000011  0.000000 -0.000025
                                -0.000000  0.000105  0.000000 -0.000474 -0.000000  0.000703  0.000000  0.001774  0.000001 -0.000652
                                 0.000000 -0.001181  0.000000 -0.001364  0.000000 -0.000420  0.000000 -0.000017  0.000000 -0.000034
                                 0.000000  0.000000 -0.000732  0.000000  0.000000 -0.000460  0.000000  0.000000

   2.1   2    -0.0413   -5.5566  0.000000 -0.000000  0.000000 -0.000000  0.000000 -0.000000  0.000001 -0.000001  0.000003 -0.000005
                                 0.000011 -0.000024  0.000056 -0.000137  0.000353 -0.000928  0.002404 -0.005863  0.012950 -0.025846
                                 0.048270 -0.073261 -0.002532  0.243957 -0.064668 -0.310590 -0.237862  0.114332  0.154918  0.240504
                                 0.395825  0.226392  0.096021  0.000000  0.000000 -0.000000 -0.000000  0.000000  0.000000 -0.000000
[...]
                                         2109     2111     2113     2115     2117     2123     2127     2119     2120   
                                          RHF      RHF      RHF      RHF      RHF      RHF      RHF      RHF      RHF  

 PROGRAMS   *        TOTAL       RHF  RCCSD(T)       RHF  RCCSD(T)       RHF     MULTI       POP       RHF  RCCSD(T)       RHF
 CPU TIMES  *       509.88      1.28      6.56      1.05     10.61      0.08      1.62      0.00      1.32     17.01      1.19
 REAL TIME  *       798.09 SEC
 DISK USED  *         6.92 GB      
 SF USED    *         1.40 GB      
 GA USED    *         0.00 MB       (max)       0.00 MB       (current)
 **********************************************************************************************************************************
 SETTING SCF(14)        =       -66.30168324  AU                              
 SETTING _CC_NORM_MAX   =         2.00000000                                  


 PROGRAM * CCSD (Restricted open-shell coupled cluster)     Authors: C. Hampel, H.-J. Werner, 1991, M. Deegan, P.J. Knowles, 1992


 Convergence thresholds:  THRVAR = 1.00D-08  THRDEN = 1.00D-06

 CCSD(T)     terms to be evaluated (factor= 1.000)


 Number of closed-shell orbitals:   1 (   1   0   0   0   0   0   0   0 )
 Number of active  orbitals:        3 (   0   1   1   0   1   0   0   0 )
 Number of external orbitals:     343 (  77  59  59  24  59  24  24  17 )

 Memory could be reduced to 55.55 Mwords without degradation in triples

 Number of N-1 electron functions:               5
 Number of N-2 electron functions:              10
 Number of singly external CSFs:               334
 Number of doubly external CSFs:            111050
 Total number of CSFs:                      111384

 Molecular orbitals read from record     2120.2  Type=RHF/CANONICAL (state 1.8)

 Integral transformation finished. Total CPU:   0.93 sec, npass=  1  Memory used:   6.85 MW

 Starting RMP2 calculation

 Wavefunction is spin-projected

 ITER.      SQ.NORM     CORR.ENERGY   TOTAL ENERGY   ENERGY CHANGE        DEN1      VAR(S)    VAR(P)  DIIS     TIME
   1      1.01414325    -0.11383595   -66.41551918    -0.11383595    -0.00006896  0.17D-08  0.10D-04  1  1     0.94
   2      1.01416723    -0.11390738   -66.41559061    -0.00007143    -0.00000001  0.83D-12  0.60D-09  2  2     0.94
   3      1.01416732    -0.11390757   -66.41559081    -0.00000019    -0.00000000  0.93D-16  0.77D-13  3  3     1.11

 Norm of t1 vector:      0.00368008      S-energy:    -0.00019721      T1 diagnostic:  0.00004204
 Norm of t2 vector:      0.11896965      P-energy:    -0.11371036
                                         Alpha-Beta:  -0.08597661
                                         Alpha-Alpha: -0.02773375
                                         Beta-Beta:    0.00000000

 Spin contamination <S**2-Sz**2-Sz>     0.00000000
  Reference energy                    -66.301683235672
  RHF-RMP2 correlation energy          -0.113907571224
 !RHF-RMP2 energy                     -66.415590806896
 (NB above energy spin projected)

 Starting RCCSD calculation

 ITER.      SQ.NORM     CORR.ENERGY   TOTAL ENERGY   ENERGY CHANGE        DEN1      VAR(S)    VAR(P)  DIIS     TIME
   1      1.01659086    -0.12160709   -66.42329032    -0.12160709    -0.00139169  0.38D-05  0.19D-03  1  1     1.49
   2      1.01715737    -0.12307468   -66.42475792    -0.00146759    -0.00001054  0.16D-07  0.13D-05  2  2     1.79
   3      1.01719194    -0.12313192   -66.42481516    -0.00005724    -0.00000010  0.15D-09  0.12D-07  3  3     2.09
   4      1.01719429    -0.12313603   -66.42481926    -0.00000410    -0.00000000  0.34D-11  0.29D-10  4  4     2.40
   5      1.01719431    -0.12313602   -66.42481926     0.00000001    -0.00000000  0.12D-13  0.89D-13  5  5     2.70

 Norm of t1 vector:      0.00414769      S-energy:    -0.00018413      T1 diagnostic:  0.00068086
                                                                       D1 diagnostic:  0.00107458
 Norm of t2 vector:      0.13106147      P-energy:    -0.12295189
                                         Alpha-Beta:  -0.09462943
                                         Alpha-Alpha: -0.02832246
                                         Beta-Beta:    0.00000000

 Spin contamination <S**2-Sz**2-Sz>     0.00000000

 Memory could be reduced to 56.03 Mwords without degradation in triples
 

  Correlated core orbitals:             1.1       1.2       1.3       1.5
  Orbital energies:                   -13.0615  -10.8571  -10.8571  -10.8571
 
  RCCSD core-core energy               -0.123136019680
 

 RESULTS
 =======

  Reference energy                    -66.301683235672
  RCCSD singles energy                 -0.000184127585
  RCCSD pair energy                    -0.122951892095
  RCCSD correlation energy             -0.123136019680
  Triples (T) contribution             -0.001565934074
  Total correlation energy             -0.124701953753
 
  RHF-RCCSD energy                    -66.424819255352
  RHF-RCCSD[T] energy                 -66.426384573179
  RHF-RCCSD-T energy                  -66.426385026175
 !RHF-RCCSD(T) energy                 -66.426385189425

 Program statistics:

 Available memory in ccsd:              1023999732
 Min. memory needed in ccsd:                860572
 Max. memory used in ccsd:                  957260
 Max. memory used in cckext:               1178890 ( 5 integral passes)
 Max. memory used in cckint:               6846760 ( 1 integral passes)



 **********************************************************************************************************************************
 DATASETS  * FILE   NREC   LENGTH (MB)   RECORD NAMES
              1      20       46.45       500      610      700      900      950      970     1000      129      960     1100   
                                          VAR    BASINP    GEOM    SYMINP    ZMAT    AOBASIS   BASIS     P2S    ABASIS      S 
                                         1400     1410     1420     1200     1210     1080     1600     1650     1700     1380   
                                           T        V       ECP      H0       H01     AOSYM     SMH    MOLCAS    OPER     JKOP   

              2      19       48.91       200      700     1000      520     4202     5202     2105     2102     5202(1)  2107   
                                        OPTIONS   GEOM     BASIS   MCVARS     RHF     MCSCF     RHF      RHF     MCSCF     RHF  
                                         2109     2111     2113     2115     2117     2123     2127     2119     2120   
                                          RHF      RHF      RHF      RHF      RHF      RHF      RHF      RHF      RHF  

 PROGRAMS   *        TOTAL  RCCSD(T)       RHF  RCCSD(T)       RHF  RCCSD(T)       RHF     MULTI       POP       RHF  RCCSD(T)
 CPU TIMES  *       514.80      4.91      1.28      6.56      1.05     10.61      0.08      1.62      0.00      1.32     17.01
 REAL TIME  *       805.15 SEC
 DISK USED  *         6.92 GB      
 SF USED    *         1.40 GB      
 GA USED    *         0.00 MB       (max)       0.00 MB       (current)
 **********************************************************************************************************************************
 SETTING CCSD(14)       =       -66.42638519  AU                              

 DO I                   =        15.00000000   

 Running procedure=XVIIS2


 PROGRAM * RHF-SCF (CLOSED SHELL)       Authors: W. Meyer, H.-J. Werner


 NUMBER OF ELECTRONS:       1+    1-    SPACE SYMMETRY=1    SPIN SYMMETRY: Singlet 
 CONVERGENCE THRESHOLDS:    1.00E-05 (Density)    1.00E-07 (Energy)
 MAX. NUMBER OF ITERATIONS:       60
 INTERPOLATION TYPE:            DIIS
 INTERPOLATION STEPS:              2 (START)      1 (STEP)
 LEVEL SHIFTS:                  0.00 (CLOSED)  0.00 (OPEN) 



 Orbital guess generated from atomic densities. Full valence occupancy:    4   1   1   1   1   1   1   0


 Molecular orbital dump at record        2121.2

 Initial occupancy:   1   0   0   0   0   0   0   0

 ITERATION    DDIFF          GRAD             ENERGY        2-EL.EN.            DIPOLE MOMENTS         DIIS   ORB.
    1      0.000D+00      0.000D+00       -31.03171715      1.859635    0.00000    0.00000    0.00000    0    start
    2      0.000D+00      0.124D+00       -31.38209951      2.020493    0.00000    0.00000    0.00000    1    diag
    3      0.234D-01      0.944D-02       -31.38408696      2.032583    0.00000    0.00000    0.00000    2    diag
    4      0.238D-02      0.408D-04       -31.38408699      2.032622    0.00000    0.00000    0.00000    3    diag
    5      0.180D-04      0.965D-06       -31.38408699      2.032621    0.00000    0.00000    0.00000    4    diag
    6      0.324D-06      0.193D-07       -31.38408699      2.032621    0.00000    0.00000    0.00000    0    orth

 Final occupancy:   1   0   0   0   0   0   0   0

 !RHF STATE 1.1 Energy                -31.384086986987
 Nuclear energy                         0.00000000
 One-electron energy                  -32.40039765
 Two-electron energy                    1.01631066
 Virial quotient                       -5.67167689
 !RHF STATE 1.1 Dipole moment           0.00000000     0.00000000     0.00000000
 Dipole moment /Debye                   0.00000000     0.00000000     0.00000000

 Orbital energies:

         1.1          2.1          3.1
    -15.183888    -9.772514    -9.772514

         1.2          2.2
    -12.428915    -7.034385

         1.3          2.3
    -12.428915    -7.034385

         1.4          2.4
     -9.772514    -5.873403

         1.5          2.5
    -12.428915    -7.034385

         1.6          2.6
     -9.772514    -5.873403

         1.7          2.7
     -9.772514    -5.873403

         1.8          2.8
     -7.034385    -4.556904

 HOMO      1.1   -15.183888 =    -413.1746eV
 LUMO      1.2   -12.428915 =    -338.2080eV
 LUMO-HOMO         2.754974 =      74.9666eV


 **********************************************************************************************************************************
 DATASETS  * FILE   NREC   LENGTH (MB)   RECORD NAMES
              1      20       46.45       500      610      700      900      950      970     1000      129      960     1100   
                                          VAR    BASINP    GEOM    SYMINP    ZMAT    AOBASIS   BASIS     P2S    ABASIS      S 
                                         1400     1410     1420     1200     1210     1080     1600     1650     1700     1380   
                                           T        V       ECP      H0       H01     AOSYM     SMH    MOLCAS    OPER     JKOP   

              2      20       52.01       200      700     1000      520     4202     5202     2105     2102     5202(1)  2107   
                                        OPTIONS   GEOM     BASIS   MCVARS     RHF     MCSCF     RHF      RHF     MCSCF     RHF  
                                         2109     2111     2113     2115     2117     2123     2127     2119     2120     2121   
                                          RHF      RHF      RHF      RHF      RHF      RHF      RHF      RHF      RHF      RHF  

 PROGRAMS   *        TOTAL       RHF  RCCSD(T)       RHF  RCCSD(T)       RHF  RCCSD(T)       RHF     MULTI       POP       RHF
 CPU TIMES  *       515.69      0.88      4.91      1.28      6.56      1.05     10.61      0.08      1.62      0.00      1.32
 REAL TIME  *       806.18 SEC
 DISK USED  *         6.92 GB      
 SF USED    *         1.40 GB      
 GA USED    *         0.00 MB       (max)       0.00 MB       (current)
 **********************************************************************************************************************************
 SETTING SCF(15)        =       -31.38408699  AU                              
 SETTING _CC_NORM_MAX   =         2.00000000                                  


 PROGRAM * CCSD (Restricted open-shell coupled cluster)     Authors: C. Hampel, H.-J. Werner, 1991, M. Deegan, P.J. Knowles, 1992


 Convergence thresholds:  THRVAR = 1.00D-08  THRDEN = 1.00D-06

 CCSD(T)     terms to be evaluated (factor= 1.000)


 Number of closed-shell orbitals:   1 (   1   0   0   0   0   0   0   0 )
 Number of external orbitals:     346 (  77  60  60  24  60  24  24  17 )

 Memory could be reduced to 39.76 Mwords without degradation in triples

 Number of N-1 electron functions:               2
 Number of N-2 electron functions:               1
 Number of singly external CSFs:               154
 Number of doubly external CSFs:             18746
 Total number of CSFs:                       18900

 Molecular orbitals read from record     2121.2  Type=RHF/CANONICAL (state 1.1)

 Integral transformation finished. Total CPU:   0.22 sec, npass=  1  Memory used:   3.08 MW

 Starting RMP2 calculation

 Wavefunction is spin-projected

 ITER.      SQ.NORM     CORR.ENERGY   TOTAL ENERGY   ENERGY CHANGE        DEN1      VAR(S)    VAR(P)  DIIS     TIME
   1      1.00667192    -0.04507313   -31.42916012    -0.04507313    -0.00004028  0.15D-20  0.68D-05  1  1     0.23
   2      1.00668645    -0.04511475   -31.42920173    -0.00004162    -0.00000000  0.25D-24  0.12D-09  2  2     0.23
   3      1.00668649    -0.04511482   -31.42920180    -0.00000007    -0.00000000  0.15D-28  0.14D-14  3  3     0.23

 Norm of t1 vector:      0.00000000      S-energy:    -0.00000000      T1 diagnostic:  0.00000000
 Norm of t2 vector:      0.08177094      P-energy:    -0.04511482
                                         Alpha-Beta:  -0.04511482
                                         Alpha-Alpha:  0.00000000
                                         Beta-Beta:    0.00000000

 Spin contamination <S**2-Sz**2-Sz>     0.00000000
  Reference energy                    -31.384086986987
  RHF-RMP2 correlation energy          -0.045114816327
 !RHF-RMP2 energy                     -31.429201803314
 (NB above energy spin projected)

 Starting RCCSD calculation

 ITER.      SQ.NORM     CORR.ENERGY   TOTAL ENERGY   ENERGY CHANGE        DEN1      VAR(S)    VAR(P)  DIIS     TIME
   1      1.00854206    -0.04921870   -31.43330569    -0.04921870    -0.00135990  0.11D-05  0.22D-03  1  1     0.30
   2      1.00936243    -0.05090702   -31.43499401    -0.00168832    -0.00000745  0.72D-08  0.83D-06  2  2     0.38
   3      1.00940807    -0.05098612   -31.43507311    -0.00007910    -0.00000003  0.52D-10  0.27D-08  3  3     0.45
   4      1.00940783    -0.05098500   -31.43507199     0.00000112    -0.00000000  0.52D-13  0.40D-11  4  4     0.52
   5      1.00940788    -0.05098509   -31.43507208    -0.00000009    -0.00000000  0.16D-15  0.37D-14  5  5     0.60

 Norm of t1 vector:      0.00127940      S-energy:    -0.00000000      T1 diagnostic:  0.00063970
                                                                       D1 diagnostic:  0.00090467
 Norm of t2 vector:      0.09698579      P-energy:    -0.05098509
                                         Alpha-Beta:  -0.05098509
                                         Alpha-Alpha:  0.00000000
                                         Beta-Beta:    0.00000000

 Doubles amplitudes (print threshold =  0.500E-01):

         I         J         SYM. A    SYM. B    A         B      T(IJ, AB) [Alpha-Beta]

         1         1         2         2         1         1     -0.05346328
         1         1         3         3         1         1     -0.05346328
         1         1         5         5         1         1     -0.05346328

 Spin contamination <S**2-Sz**2-Sz>     0.00000000

 Memory could be reduced to 39.06 Mwords without degradation in triples
 

  Correlated core orbitals:             1.1
  Orbital energies:                   -15.1839
 
  RCCSD core-core energy               -0.050985091446
 

 RESULTS
 =======

  Reference energy                    -31.384086986987
  RCCSD singles energy                 -0.000000000017
  RCCSD pair energy                    -0.050985091429
  RCCSD correlation energy             -0.050985091446
  Triples (T) contribution              0.000000000000
  Total correlation energy             -0.050985091446
 
  RHF-RCCSD energy                    -31.435072078434
  RHF-RCCSD[T] energy                 -31.435072078434
  RHF-RCCSD-T energy                  -31.435072078434
 !RHF-RCCSD(T) energy                 -31.435072078434

 Program statistics:

 Available memory in ccsd:              1023999882
 Min. memory needed in ccsd:                533341
 Max. memory used in ccsd:                  533341
 Max. memory used in cckext:                893900 ( 5 integral passes)
 Max. memory used in cckint:               3079762 ( 1 integral passes)



 **********************************************************************************************************************************
 DATASETS  * FILE   NREC   LENGTH (MB)   RECORD NAMES
              1      20       46.45       500      610      700      900      950      970     1000      129      960     1100   
                                          VAR    BASINP    GEOM    SYMINP    ZMAT    AOBASIS   BASIS     P2S    ABASIS      S 
                                         1400     1410     1420     1200     1210     1080     1600     1650     1700     1380   
                                           T        V       ECP      H0       H01     AOSYM     SMH    MOLCAS    OPER     JKOP   

              2      20       52.01       200      700     1000      520     4202     5202     2105     2102     5202(1)  2107   
                                        OPTIONS   GEOM     BASIS   MCVARS     RHF     MCSCF     RHF      RHF     MCSCF     RHF  
                                         2109     2111     2113     2115     2117     2123     2127     2119     2120     2121   
                                          RHF      RHF      RHF      RHF      RHF      RHF      RHF      RHF      RHF      RHF  

 PROGRAMS   *        TOTAL  RCCSD(T)       RHF  RCCSD(T)       RHF  RCCSD(T)       RHF  RCCSD(T)       RHF     MULTI       POP
 CPU TIMES  *       516.70      1.01      0.88      4.91      1.28      6.56      1.05     10.61      0.08      1.62      0.00
 REAL TIME  *       807.60 SEC
 DISK USED  *         6.92 GB      
 SF USED    *         1.40 GB      
 GA USED    *         0.00 MB       (max)       0.00 MB       (current)
 **********************************************************************************************************************************
 SETTING CCSD(15)       =       -31.43507208  AU                              
 Output type csv         
                                                                                                                                                                                                                                                                

        SCF,CCSD
   -119.05209241,   -119.71647961
   -119.06716029,   -119.79290713
   -119.03850486,   -119.70481351
   -119.01889259,   -119.69856313
   -118.77089042,   -119.38644850
   -118.76277434,   -119.36004010
   -118.15173216,   -118.70014659
   -117.07726774,   -117.57052332
   -115.50634856,   -115.95145162
   -114.32947680,   -114.75402782
   -113.44721541,   -113.83696821
    -96.44817841,    -96.84530932
    -93.30012522,    -93.55996892
    -66.30168324,    -66.42638519
    -31.38408699,    -31.43507208
                                                  

 RCCSD(T)/USERDEF energy=    -31.435072078434

        RCCSD(T)        RHF-SCF         RCCSD(T)        RHF-SCF         RCCSD(T)        RHF-SCF         RCCSD(T)        RHF-SCF 
    -31.43507208    -31.38408699    -66.42638519    -66.30168324    -93.55996892    -93.30012522    -96.84530932    -96.44817841
 **********************************************************************************************************************************
 Molpro calculation terminated
 Variable memory released
