
 Primary working directories    : /global/cscratch1/sd/haihan
 Secondary working directories  : /global/cscratch1/sd/haihan
 Wavefunction directory         : /global/homes/h/haihan/wfu/
 Main file repository           : /global/cscratch1/sd/haihan/

 SHA1      : 19cd028119e0e09f93f0674bd8af7968d9b3eff6
 NAME      : 2015.1.36
 ARCHNAME  : linux/x86_64
 FC        : /opt/cray/pe/craype/2.5.14/bin/ftn
 BLASLIB   : -L/opt/intel/compilers_and_libraries_2018.1.163/linux/mkl/lib/intel64 -Wl,-_start-group -lmkl_intel_ilp64 -lmkl_intel_thread -lmkl_core -Wl,-_end-group -liomp5
 id        : lbl

 Nodes     nprocs
 nid12998    15
 Number of processes for MPI-2 version of Molpro:   nprocs(total)=   16   nprocs(compute)=   15   nprocs(helper)=    1

 Using customized tuning parameters: mindgm=7; mindgv=16; mindgc=1; mindgr=1; noblas=0; minvec=7
 default implementation of scratch files=sf  

 ***,Pd
 memory,512,m
 
 gthresh,twoint=1.e-12
 gprint,basis,orbitals
 
 angstrom
 geometry={
 1                                                                               ! Number of atoms
 Pd 0.0 0.0 0.0
 }
 
                                                                                 !!! Initial guesses from STU
 s_par=[1.375900,1.905100]
 p_par=[3.286000,2.688500]
 d_par=[4.475200,1.682600]
 f_par=[8.158300]
 g_par=[3.385400]
 h_par=[3.300800]
 
 proc opt_basis
 
 basis={
 Including file /global/u2/h/haihan/Research/HZECP/Pd_basis/core_qz/ecp.molpro
 Including file /global/u2/h/haihan/Research/HZECP/Pd_basis/core_qz/basis.molpro
 
 s,Pd,s_par(1),s_par(2)
 p,Pd,p_par(1),p_par(2)
 d,Pd,d_par(1),d_par(2)
 f,Pd,f_par(1)
 g,Pd,g_par(1)
 h,Pd,h_par(1)
 }
 
 {rhf
  start,atden
  print,orbitals=2
  wf,18,1,0
  occ,3,1,1,1,1,1,1,0
  closed,3,1,1,1,1,1,1,0
  sym,1,1,3,2
  natorb,ci,print
  orbital,4202.2
 }
 {rhf,nitord=1,maxit=0
  start,4202.2
  wf,18,1,0
  occ,3,1,1,1,1,1,1,0
  closed,3,1,1,1,1,1,1,0
  sym,1,1,3,2
 }
 
 data,rename,4202.2,4302.2
 
 {ci;maxit,100;core}
 eval=energy
 
 endproc
 
 {minimize,eval, s_par(1),s_par(2),p_par(1),p_par(2),d_par(1),d_par(2),f_par(1),g_par(1),h_par(1)
 method,bfgs,proc=opt_basis,thresh=5e-5,vstep=1e-3
 maxit,100}
 

 Variables initialized (889), CPU time= 0.01 sec
 Commands  initialized (702), CPU time= 0.01 sec, 572 directives.
 Default parameters read. Elapsed time= 0.21 sec

 Checking input...
 Passed
1


                                         ***  PROGRAM SYSTEM MOLPRO  ***
                                       Copyright, TTI GmbH Stuttgart, 2015
                                    Version 2015.1 linked Dec 29 2018 15:55:43


 **********************************************************************************************************************************
 LABEL *   Pd                                                                            
  64 bit mpp version                                                                     DATE: 22-Feb-22          TIME: 22:50:05  
 **********************************************************************************************************************************

 SHA1:             19cd028119e0e09f93f0674bd8af7968d9b3eff6
 **********************************************************************************************************************************

 THRESHOLDS:

 ZERO    =  1.00D-12  ONEINT  =  1.00D-12  TWOINT  =  1.00D-12  PREFAC  =  1.00D-14  LOCALI  =  1.00D-09  EORDER  =  1.00D-04
 ENERGY  =  0.00D+00  ETEST   =  0.00D+00  EDENS   =  0.00D+00  THRDEDEF=  1.00D-06  GRADIENT=  1.00D-02  STEP    =  1.00D-03
 ORBITAL =  1.00D-05  CIVEC   =  1.00D-05  COEFF   =  1.00D-04  PRINTCI =  5.00D-02  PUNCHCI =  9.90D+01  OPTGRAD =  3.00D-04
 OPTENERG=  1.00D-06  OPTSTEP =  3.00D-04  THRGRAD =  1.00D-10  COMPRESS=  1.00D-11  VARMIN  =  1.00D-07  VARMAX  =  1.00D-03
 THRDOUB =  0.00D+00  THRDIV  =  1.00D-05  THRRED  =  1.00D-07  THRPSP  =  1.00D+00  THRDC   =  1.00D-10  THRCS   =  1.00D-10
 THRNRM  =  1.00D-08  THREQ   =  0.00D+00  THRDE   =  1.00D+00  THRREF  =  1.00D-05  SPARFAC =  1.00D+00  THRDLP  =  1.00D-07
 THRDIA  =  1.00D-10  THRDLS  =  1.00D-07  THRGPS  =  0.00D+00  THRKEX  =  0.00D+00  THRDIS  =  2.00D-01  THRVAR  =  1.00D-10
 THRLOC  =  1.00D-06  THRGAP  =  1.00D-06  THRLOCT = -1.00D+00  THRGAPT = -1.00D+00  THRORB  =  1.00D-06  THRMLTP =  0.00D+00
 THRCPQCI=  1.00D-10  KEXTA   =  0.00D+00  THRCOARS=  0.00D+00  SYMTOL  =  1.00D-06  GRADTOL =  1.00D-06  THROVL  =  1.00D-08
 THRORTH =  1.00D-08  GRID    =  1.00D-06  GRIDMAX =  1.00D-03  DTMAX   =  0.00D+00  THROCCDE=  1.00D-01  THROCCDE=  1.00D-01



 ZUNIT=ANG
 

Geometry recognized as XYZ

 SETTING S_PAR(1)       =         1.37590000                                  
 SETTING S_PAR(2)       =         1.90510000                                  
 SETTING P_PAR(1)       =         3.28600000                                  
 SETTING P_PAR(2)       =         2.68850000                                  
 SETTING D_PAR(1)       =         4.47520000                                  
 SETTING D_PAR(2)       =         1.68260000                                  
 SETTING F_PAR          =         8.15830000                                  
 SETTING G_PAR          =         3.38540000                                  
 SETTING H_PAR          =         3.30080000                                  

 Variable memory set to  512000000 words,  buffer space   230000 words



 PROGRAM * MINIMIZE (General minimization)     Authors: H.-J. Werner, P.J. Knowles, K.A. Peterson

 Minimize EVAL with respect to:        S_PAR(1)  S_PAR(2)  P_PAR(1)  P_PAR(2)  D_PAR(1)  
                                       D_PAR(2)  F_PAR(1)  G_PAR(1)  H_PAR(1)  
 Method BFGS will be used
 Variables are optimized in the space of (x/x0)


 Minimization using procedure=OPT_BASIS

 *** Long output written to logfile /global/u2/h/haihan/Research/HZECP/Pd_basis/core_qz/atom.log ***


 BFGS update of inverse hessian 

 PROGRAM * MINIMIZE (General minimization)     Authors: H.-J. Werner, P.J. Knowles, K.A. Peterson


 Results for BFGS iteration    1       Current function value  =       -127.211719405
                                     Previous function value =          0.000000000
 Current variables and gradients:
 BFGS       S_PAR(1)                  1.375900       -0.0002159
 BFGS       S_PAR(2)                  1.905100       -0.0000999
 BFGS       P_PAR(1)                  3.286000        0.0002701
 BFGS       P_PAR(2)                  2.688500        0.0001996
 BFGS       D_PAR(1)                  4.475200       -0.0000230
 BFGS       D_PAR(2)                  1.682600        0.0000329
 BFGS       F_PAR(1)                  8.158300       -0.0038328
 BFGS       G_PAR(1)                  3.385400        0.0003757
 BFGS       H_PAR(1)                  3.300800        0.0002864

 BFGS update of inverse hessian 

 Results for BFGS iteration    2       Current function value  =       -127.211737596
                                     Previous function value =       -127.211719405
 Current variables and gradients:
 BFGS       S_PAR(1)                  1.376197       -0.0002161
 BFGS       S_PAR(2)                  1.907004       -0.0000994
 BFGS       P_PAR(1)                  3.277127        0.0002583
 BFGS       P_PAR(2)                  2.683135        0.0001889
 BFGS       D_PAR(1)                  4.476230       -0.0000221
 BFGS       D_PAR(2)                  1.682047        0.0000284
 BFGS       F_PAR(1)                  8.189568       -0.0038620
 BFGS       G_PAR(1)                  3.372685        0.0003607
 BFGS       H_PAR(1)                  3.291349        0.0002722

 BFGS update of inverse hessian 

 Results for BFGS iteration    3       Current function value  =       -127.212446867
                                     Previous function value =       -127.211737596
 Current variables and gradients:
 BFGS       S_PAR(1)                  1.388448       -0.0002156
 BFGS       S_PAR(2)                  1.979338       -0.0000705
 BFGS       P_PAR(1)                  2.947926       -0.0000641
 BFGS       P_PAR(2)                  2.485342       -0.0000973
 BFGS       D_PAR(1)                  4.514556        0.0000055
 BFGS       D_PAR(2)                  1.662743       -0.0001294
 BFGS       F_PAR(1)                  9.484318       -0.0045759
 BFGS       G_PAR(1)                  2.899803       -0.0002755
 BFGS       H_PAR(1)                  2.942076       -0.0001614

 BFGS update of inverse hessian 

 Results for BFGS iteration    4       Current function value  =       -127.213087189
                                     Previous function value =       -127.212446867
 Current variables and gradients:
 BFGS       S_PAR(1)                  1.401420       -0.0002041
 BFGS       S_PAR(2)                  2.046309       -0.0000353
 BFGS       P_PAR(1)                  2.648636       -0.0003060
 BFGS       P_PAR(2)                  2.306470       -0.0003042
 BFGS       D_PAR(1)                  4.549284        0.0000236
 BFGS       D_PAR(2)                  1.647217       -0.0002558
 BFGS       F_PAR(1)                 10.860327       -0.0043936
 BFGS       G_PAR(1)                  2.480486       -0.0009653
 BFGS       H_PAR(1)                  2.628024       -0.0003044

 BFGS update of inverse hessian 

 Results for BFGS iteration    5       Current function value  =       -127.213609885
                                     Previous function value =       -127.213087189
 Current variables and gradients:
 BFGS       S_PAR(1)                  1.418302       -0.0001795
 BFGS       S_PAR(2)                  2.118655        0.0000096
 BFGS       P_PAR(1)                  2.334450       -0.0006807
 BFGS       P_PAR(2)                  2.120262       -0.0006138
 BFGS       D_PAR(1)                  4.585782        0.0000333
 BFGS       D_PAR(2)                  1.635179       -0.0003583
 BFGS       F_PAR(1)                 12.491987       -0.0033005
 BFGS       G_PAR(1)                  2.074065       -0.0017128
 BFGS       H_PAR(1)                  2.293308       -0.0000496

 BFGS update of inverse hessian 

 Results for BFGS iteration    6       Current function value  =       -127.213876117
                                     Previous function value =       -127.213609885
 Current variables and gradients:
 BFGS       S_PAR(1)                  1.435931       -0.0001472
 BFGS       S_PAR(2)                  2.181841        0.0000527
 BFGS       P_PAR(1)                  2.083768       -0.0009745
 BFGS       P_PAR(2)                  1.974979       -0.0008341
 BFGS       D_PAR(1)                  4.616721        0.0000327
 BFGS       D_PAR(2)                  1.631618       -0.0003957
 BFGS       F_PAR(1)                 14.123647       -0.0017552
 BFGS       G_PAR(1)                  1.795245       -0.0022092
 BFGS       H_PAR(1)                  1.984163        0.0006576

 BFGS update of inverse hessian 

 Results for BFGS iteration    7       Current function value  =       -127.214031447
                                     Previous function value =       -127.213876117
 Current variables and gradients:
 BFGS       S_PAR(1)                  1.443980       -0.0001370
 BFGS       S_PAR(2)                  2.198573        0.0000646
 BFGS       P_PAR(1)                  2.049729       -0.0009614
 BFGS       P_PAR(2)                  1.959540       -0.0008161
 BFGS       D_PAR(1)                  4.624050        0.0000256
 BFGS       D_PAR(2)                  1.639295       -0.0003599
 BFGS       F_PAR(1)                 14.820331       -0.0010727
 BFGS       G_PAR(1)                  1.819168       -0.0021590
 BFGS       H_PAR(1)                  1.859850        0.0010571

 BFGS update of inverse hessian 

 Results for BFGS iteration    8       Current function value  =       -127.214534712
                                     Previous function value =       -127.214031447
 Current variables and gradients:
 BFGS       S_PAR(1)                  1.466285       -0.0001226
 BFGS       S_PAR(2)                  2.219238        0.0000814
 BFGS       P_PAR(1)                  2.127309       -0.0009184
 BFGS       P_PAR(2)                  2.026066       -0.0007847
 BFGS       D_PAR(1)                  4.630608       -0.0000095
 BFGS       D_PAR(2)                  1.680296       -0.0001592
 BFGS       F_PAR(1)                 16.451991        0.0003797
 BFGS       G_PAR(1)                  2.212439       -0.0015024
 BFGS       H_PAR(1)                  1.515726        0.0023239

 BFGS update of inverse hessian 

 Results for BFGS iteration    9       Current function value  =       -127.214949550
                                     Previous function value =       -127.214534712
 Current variables and gradients:
 BFGS       S_PAR(1)                  1.487128       -0.0001207
 BFGS       S_PAR(2)                  2.219443        0.0000843
 BFGS       P_PAR(1)                  2.343653       -0.0005639
 BFGS       P_PAR(2)                  2.181809       -0.0004974
 BFGS       D_PAR(1)                  4.628240       -0.0000483
 BFGS       D_PAR(2)                  1.732173        0.0001442
 BFGS       F_PAR(1)                 17.794337        0.0013187
 BFGS       G_PAR(1)                  2.825858       -0.0006239
 BFGS       H_PAR(1)                  1.124212        0.0013425

 BFGS update of inverse hessian 

 Results for BFGS iteration   10       Current function value  =       -127.215099730
                                     Previous function value =       -127.214949550
 Current variables and gradients:
 BFGS       S_PAR(1)                  1.485580       -0.0001400
 BFGS       S_PAR(2)                  2.178302        0.0000571
 BFGS       P_PAR(1)                  2.609387       -0.0002399
 BFGS       P_PAR(2)                  2.351634       -0.0002276
 BFGS       D_PAR(1)                  4.609568       -0.0000641
 BFGS       D_PAR(2)                  1.754182        0.0002957
 BFGS       F_PAR(1)                 17.354407        0.0010362
 BFGS       G_PAR(1)                  3.282088       -0.0000308
 BFGS       H_PAR(1)                  1.142633        0.0016451

 BFGS update of inverse hessian 

 Results for BFGS iteration   11       Current function value  =       -127.215156432
                                     Previous function value =       -127.215099730
 Current variables and gradients:
 BFGS       S_PAR(1)                  1.485515       -0.0001487
 BFGS       S_PAR(2)                  2.154854        0.0000419
 BFGS       P_PAR(1)                  2.776706       -0.0000966
 BFGS       P_PAR(2)                  2.461257       -0.0001039
 BFGS       D_PAR(1)                  4.602738       -0.0000697
 BFGS       D_PAR(2)                  1.762984        0.0003633
 BFGS       F_PAR(1)                 17.115324        0.0008685
 BFGS       G_PAR(1)                  3.566337        0.0002746
 BFGS       H_PAR(1)                  1.066760        0.0004595

 BFGS update of inverse hessian 

 Results for BFGS iteration   12       Current function value  =       -127.215179762
                                     Previous function value =       -127.215156432
 Current variables and gradients:
 BFGS       S_PAR(1)                  1.476182       -0.0001627
 BFGS       S_PAR(2)                  2.118327        0.0000177
 BFGS       P_PAR(1)                  2.938932        0.0000214
 BFGS       P_PAR(2)                  2.561160       -0.0000011
 BFGS       D_PAR(1)                  4.593932       -0.0000593
 BFGS       D_PAR(2)                  1.751704        0.0002788
 BFGS       F_PAR(1)                 16.151144        0.0001205
 BFGS       G_PAR(1)                  3.727141        0.0004486
 BFGS       H_PAR(1)                  1.139983        0.0016555

 BFGS update of inverse hessian 

 Results for BFGS iteration   13       Current function value  =       -127.215213342
                                     Previous function value =       -127.215179762
 Current variables and gradients:
 BFGS       S_PAR(1)                  1.477343       -0.0001591
 BFGS       S_PAR(2)                  2.128416        0.0000243
 BFGS       P_PAR(1)                  2.887064       -0.0000188
 BFGS       P_PAR(2)                  2.530228       -0.0000366
 BFGS       D_PAR(1)                  4.602172       -0.0000500
 BFGS       D_PAR(2)                  1.742688        0.0002080
 BFGS       F_PAR(1)                 16.276388        0.0002236
 BFGS       G_PAR(1)                  3.630119        0.0003488
 BFGS       H_PAR(1)                  1.072609        0.0005756

 BFGS update of inverse hessian 

 Results for BFGS iteration   14       Current function value  =       -127.215230235
                                     Previous function value =       -127.215213342
 Current variables and gradients:
 BFGS       S_PAR(1)                  1.475493       -0.0001570
 BFGS       S_PAR(2)                  2.135446        0.0000286
 BFGS       P_PAR(1)                  2.826250       -0.0000683
 BFGS       P_PAR(2)                  2.492549       -0.0000805
 BFGS       D_PAR(1)                  4.612888       -0.0000312
 BFGS       D_PAR(2)                  1.723327        0.0000658
 BFGS       F_PAR(1)                 16.154437        0.0001216
 BFGS       G_PAR(1)                  3.465217        0.0001783
 BFGS       H_PAR(1)                  1.031848       -0.0003363

 BFGS update of inverse hessian 

 Results for BFGS iteration   15       Current function value  =       -127.215234282
                                     Previous function value =       -127.215230235
 Current variables and gradients:
 BFGS       S_PAR(1)                  1.473696       -0.0001570
 BFGS       S_PAR(2)                  2.136593        0.0000292
 BFGS       P_PAR(1)                  2.798982       -0.0000915
 BFGS       P_PAR(2)                  2.475111       -0.0001009
 BFGS       D_PAR(1)                  4.617494       -0.0000216
 BFGS       D_PAR(2)                  1.713363       -0.0000036
 BFGS       F_PAR(1)                 16.018981        0.0000072
 BFGS       G_PAR(1)                  3.373619        0.0000810
 BFGS       H_PAR(1)                  1.044185       -0.0000528

 BFGS update of inverse hessian 

 Results for BFGS iteration   16       Current function value  =       -127.215234744
                                     Previous function value =       -127.215234282
 Current variables and gradients:
 BFGS       S_PAR(1)                  1.473416       -0.0001576
 BFGS       S_PAR(2)                  2.134374        0.0000278
 BFGS       P_PAR(1)                  2.808131       -0.0000846
 BFGS       P_PAR(2)                  2.481764       -0.0000950
 BFGS       D_PAR(1)                  4.618721       -0.0000196
 BFGS       D_PAR(2)                  1.711951       -0.0000128
 BFGS       F_PAR(1)                 15.965894       -0.0000384
 BFGS       G_PAR(1)                  3.371067        0.0000791
 BFGS       H_PAR(1)                  1.045487       -0.0000238

 BFGS update of inverse hessian 

 Results for BFGS iteration   17       Current function value  =       -127.215235393
                                     Previous function value =       -127.215234744
 Current variables and gradients:
 BFGS       S_PAR(1)                  1.473679       -0.0001580
 BFGS       S_PAR(2)                  2.131513        0.0000263
 BFGS       P_PAR(1)                  2.821094       -0.0000743
 BFGS       P_PAR(2)                  2.492202       -0.0000858
 BFGS       D_PAR(1)                  4.621493       -0.0000174
 BFGS       D_PAR(2)                  1.711099       -0.0000173
 BFGS       F_PAR(1)                 15.929111       -0.0000701
 BFGS       G_PAR(1)                  3.364221        0.0000723
 BFGS       H_PAR(1)                  1.047388        0.0000183

 BFGS update of inverse hessian 

 Results for BFGS iteration   18       Current function value  =       -127.215237120
                                     Previous function value =       -127.215235393
 Current variables and gradients:
 BFGS       S_PAR(1)                  1.475521       -0.0001586
 BFGS       S_PAR(2)                  2.123475        0.0000223
 BFGS       P_PAR(1)                  2.859941       -0.0000426
 BFGS       P_PAR(2)                  2.525001       -0.0000576
 BFGS       D_PAR(1)                  4.631247       -0.0000115
 BFGS       D_PAR(2)                  1.710271       -0.0000185
 BFGS       F_PAR(1)                 15.880991       -0.0001114
 BFGS       G_PAR(1)                  3.341451        0.0000484
 BFGS       H_PAR(1)                  1.050390        0.0000830

 BFGS update of inverse hessian 

 Results for BFGS iteration   19       Current function value  =       -127.215238956
                                     Previous function value =       -127.215237120
 Current variables and gradients:
 BFGS       S_PAR(1)                  1.478973       -0.0001584
 BFGS       S_PAR(2)                  2.114130        0.0000181
 BFGS       P_PAR(1)                  2.907225       -0.0000025
 BFGS       P_PAR(2)                  2.566730       -0.0000219
 BFGS       D_PAR(1)                  4.644759       -0.0000053
 BFGS       D_PAR(2)                  1.711014       -0.0000074
 BFGS       F_PAR(1)                 15.889287       -0.0001033
 BFGS       G_PAR(1)                  3.311381        0.0000154
 BFGS       H_PAR(1)                  1.051389        0.0001025

 BFGS update of inverse hessian 

 Results for BFGS iteration   20       Current function value  =       -127.215240093
                                     Previous function value =       -127.215238956
 Current variables and gradients:
 BFGS       S_PAR(1)                  1.482537       -0.0001575
 BFGS       S_PAR(2)                  2.108096        0.0000158
 BFGS       P_PAR(1)                  2.938669        0.0000259
 BFGS       P_PAR(2)                  2.596495        0.0000035
 BFGS       D_PAR(1)                  4.655471       -0.0000018
 BFGS       D_PAR(2)                  1.712951        0.0000104
 BFGS       F_PAR(1)                 15.957373       -0.0000434
 BFGS       G_PAR(1)                  3.289166       -0.0000101
 BFGS       H_PAR(1)                  1.049424        0.0000578

 BFGS update of inverse hessian 

 Results for BFGS iteration   21       Current function value  =       -127.215240373
                                     Previous function value =       -127.215240093
 Current variables and gradients:
 BFGS       S_PAR(1)                  1.483887       -0.0001568
 BFGS       S_PAR(2)                  2.107685        0.0000159
 BFGS       P_PAR(1)                  2.939869        0.0000281
 BFGS       P_PAR(2)                  2.599715        0.0000057
 BFGS       D_PAR(1)                  4.657549       -0.0000018
 BFGS       D_PAR(2)                  1.713949        0.0000177
 BFGS       F_PAR(1)                 16.010347        0.0000023
 BFGS       G_PAR(1)                  3.286220       -0.0000141
 BFGS       H_PAR(1)                  1.047246        0.0000094

 BFGS update of inverse hessian 

 Results for BFGS iteration   22       Current function value  =       -127.215240443
                                     Previous function value =       -127.215240373
 Current variables and gradients:
 BFGS       S_PAR(1)                  1.484302       -0.0001565
 BFGS       S_PAR(2)                  2.108038        0.0000163
 BFGS       P_PAR(1)                  2.935358        0.0000249
 BFGS       P_PAR(2)                  2.597175        0.0000029
 BFGS       D_PAR(1)                  4.657211       -0.0000020
 BFGS       D_PAR(2)                  1.713954        0.0000170
 BFGS       F_PAR(1)                 16.029026        0.0000183
 BFGS       G_PAR(1)                  3.288432       -0.0000118
 BFGS       H_PAR(1)                  1.046409       -0.0000091

 BFGS update of inverse hessian 

 Results for BFGS iteration   23       Current function value  =       -127.215240535
                                     Previous function value =       -127.215240443
 Current variables and gradients:
 BFGS       S_PAR(1)                  1.485068       -0.0001562
 BFGS       S_PAR(2)                  2.107764        0.0000163
 BFGS       P_PAR(1)                  2.929845        0.0000212
 BFGS       P_PAR(2)                  2.594780       -0.0000002
 BFGS       D_PAR(1)                  4.657038       -0.0000018
 BFGS       D_PAR(2)                  1.713439        0.0000123
 BFGS       F_PAR(1)                 16.044560        0.0000315
 BFGS       G_PAR(1)                  3.291438       -0.0000085
 BFGS       H_PAR(1)                  1.045741       -0.0000237

 BFGS update of inverse hessian 

 Results for BFGS iteration   24       Current function value  =       -127.215240773
                                     Previous function value =       -127.215240535
 Current variables and gradients:
 BFGS       S_PAR(1)                  1.487597       -0.0001553
 BFGS       S_PAR(2)                  2.105298        0.0000158
 BFGS       P_PAR(1)                  2.919237        0.0000150
 BFGS       P_PAR(2)                  2.592698       -0.0000052
 BFGS       D_PAR(1)                  4.657796        0.0000000
 BFGS       D_PAR(2)                  1.711466       -0.0000040
 BFGS       F_PAR(1)                 16.069555        0.0000528
 BFGS       G_PAR(1)                  3.297232       -0.0000018
 BFGS       H_PAR(1)                  1.044783       -0.0000446

 BFGS update of inverse hessian 

 Results for BFGS iteration   25       Current function value  =       -127.215241249
                                     Previous function value =       -127.215240773
 Current variables and gradients:
 BFGS       S_PAR(1)                  1.493579       -0.0001535
 BFGS       S_PAR(2)                  2.097645        0.0000134
 BFGS       P_PAR(1)                  2.903608        0.0000082
 BFGS       P_PAR(2)                  2.594991       -0.0000102
 BFGS       D_PAR(1)                  4.661146        0.0000050
 BFGS       D_PAR(2)                  1.706891       -0.0000403
 BFGS       F_PAR(1)                 16.098526        0.0000773
 BFGS       G_PAR(1)                  3.305391        0.0000082
 BFGS       H_PAR(1)                  1.043927       -0.0000627

 BFGS update of inverse hessian 

 Results for BFGS iteration   26       Current function value  =       -127.215242096
                                     Previous function value =       -127.215241249
 Current variables and gradients:
 BFGS       S_PAR(1)                  1.505635       -0.0001502
 BFGS       S_PAR(2)                  2.080176        0.0000073
 BFGS       P_PAR(1)                  2.883050        0.0000034
 BFGS       P_PAR(2)                  2.607969       -0.0000126
 BFGS       D_PAR(1)                  4.669432        0.0000153
 BFGS       D_PAR(2)                  1.698459       -0.0001050
 BFGS       F_PAR(1)                 16.121305        0.0000966
 BFGS       G_PAR(1)                  3.314793        0.0000206
 BFGS       H_PAR(1)                  1.043773       -0.0000645

 BFGS update of inverse hessian 

 Results for BFGS iteration   27       Current function value  =       -127.215243238
                                     Previous function value =       -127.215242096
 Current variables and gradients:
 BFGS       S_PAR(1)                  1.523476       -0.0001459
 BFGS       S_PAR(2)                  2.052397       -0.0000032
 BFGS       P_PAR(1)                  2.863469        0.0000050
 BFGS       P_PAR(2)                  2.635464       -0.0000083
 BFGS       D_PAR(1)                  4.682688        0.0000295
 BFGS       D_PAR(2)                  1.688006       -0.0001825
 BFGS       F_PAR(1)                 16.117413        0.0000934
 BFGS       G_PAR(1)                  3.320597        0.0000297
 BFGS       H_PAR(1)                  1.045021       -0.0000346

 BFGS update of inverse hessian 

 Results for BFGS iteration   28       Current function value  =       -127.215244500
                                     Previous function value =       -127.215243238
 Current variables and gradients:
 BFGS       S_PAR(1)                  1.543689       -0.0001414
 BFGS       S_PAR(2)                  2.019728       -0.0000161
 BFGS       P_PAR(1)                  2.849114        0.0000138
 BFGS       P_PAR(2)                  2.672636        0.0000021
 BFGS       D_PAR(1)                  4.697417        0.0000424
 BFGS       D_PAR(2)                  1.679925       -0.0002410
 BFGS       F_PAR(1)                 16.080813        0.0000625
 BFGS       G_PAR(1)                  3.319120        0.0000305
 BFGS       H_PAR(1)                  1.047463        0.0000208

 BFGS update of inverse hessian 

 Results for BFGS iteration   29       Current function value  =       -127.215245928
                                     Previous function value =       -127.215244500
 Current variables and gradients:
 BFGS       S_PAR(1)                  1.565044       -0.0001370
 BFGS       S_PAR(2)                  1.985491       -0.0000302
 BFGS       P_PAR(1)                  2.835517        0.0000250
 BFGS       P_PAR(2)                  2.713150        0.0000146
 BFGS       D_PAR(1)                  4.710677        0.0000504
 BFGS       D_PAR(2)                  1.677145       -0.0002614
 BFGS       F_PAR(1)                 16.025627        0.0000156
 BFGS       G_PAR(1)                  3.311462        0.0000232
 BFGS       H_PAR(1)                  1.050266        0.0000824

 BFGS update of inverse hessian 

 Results for BFGS iteration   30       Current function value  =       -127.215247993
                                     Previous function value =       -127.215245928
 Current variables and gradients:
 BFGS       S_PAR(1)                  1.593685       -0.0001309
 BFGS       S_PAR(2)                  1.942069       -0.0000483
 BFGS       P_PAR(1)                  2.809559        0.0000349
 BFGS       P_PAR(2)                  2.761574        0.0000287
 BFGS       D_PAR(1)                  4.723651        0.0000529
 BFGS       D_PAR(2)                  1.680884       -0.0002366
 BFGS       F_PAR(1)                 15.961867       -0.0000391
 BFGS       G_PAR(1)                  3.299497        0.0000096
 BFGS       H_PAR(1)                  1.052965        0.0001394

 BFGS update of inverse hessian 

 Results for BFGS iteration   31       Current function value  =       -127.215250797
                                     Previous function value =       -127.215247993
 Current variables and gradients:
 BFGS       S_PAR(1)                  1.632211       -0.0001227
 BFGS       S_PAR(2)                  1.888665       -0.0000712
 BFGS       P_PAR(1)                  2.755039        0.0000308
 BFGS       P_PAR(2)                  2.811694        0.0000276
 BFGS       D_PAR(1)                  4.733896        0.0000463
 BFGS       D_PAR(2)                  1.693375       -0.0001523
 BFGS       F_PAR(1)                 15.913690       -0.0000809
 BFGS       G_PAR(1)                  3.287054       -0.0000073
 BFGS       H_PAR(1)                  1.054253        0.0001655

 BFGS update of inverse hessian 

 Results for BFGS iteration   32       Current function value  =       -127.215253407
                                     Previous function value =       -127.215250797
 Current variables and gradients:
 BFGS       S_PAR(1)                  1.677661       -0.0001124
 BFGS       S_PAR(2)                  1.831311       -0.0000961
 BFGS       P_PAR(1)                  2.677354        0.0000146
 BFGS       P_PAR(2)                  2.859520        0.0000207
 BFGS       D_PAR(1)                  4.740933        0.0000333
 BFGS       D_PAR(2)                  1.711934       -0.0000231
 BFGS       F_PAR(1)                 15.926566       -0.0000702
 BFGS       G_PAR(1)                  3.284810       -0.0000148
 BFGS       H_PAR(1)                  1.051779        0.0001099

 BFGS update of inverse hessian 

 Results for BFGS iteration   33       Current function value  =       -127.215254410
                                     Previous function value =       -127.215253407
 Current variables and gradients:
 BFGS       S_PAR(1)                  1.691511       -0.0001082
 BFGS       S_PAR(2)                  1.820151       -0.0000999
 BFGS       P_PAR(1)                  2.634253       -0.0000077
 BFGS       P_PAR(2)                  2.858781        0.0000055
 BFGS       D_PAR(1)                  4.737347        0.0000251
 BFGS       D_PAR(2)                  1.719597        0.0000304
 BFGS       F_PAR(1)                 15.980814       -0.0000236
 BFGS       G_PAR(1)                  3.291186       -0.0000105
 BFGS       H_PAR(1)                  1.048266        0.0000326

 BFGS update of inverse hessian 

 Results for BFGS iteration   34       Current function value  =       -127.215254758
                                     Previous function value =       -127.215254410
 Current variables and gradients:
 BFGS       S_PAR(1)                  1.691791       -0.0001067
 BFGS       S_PAR(2)                  1.826470       -0.0000956
 BFGS       P_PAR(1)                  2.619815       -0.0000203
 BFGS       P_PAR(2)                  2.847246       -0.0000040
 BFGS       D_PAR(1)                  4.732138        0.0000220
 BFGS       D_PAR(2)                  1.720355        0.0000345
 BFGS       F_PAR(1)                 16.024142        0.0000135
 BFGS       G_PAR(1)                  3.299292       -0.0000022
 BFGS       H_PAR(1)                  1.045964       -0.0000181

 BFGS update of inverse hessian 

 Results for BFGS iteration   35       Current function value  =       -127.215254964
                                     Previous function value =       -127.215254758
 Current variables and gradients:
 BFGS       S_PAR(1)                  1.691578       -0.0001054
 BFGS       S_PAR(2)                  1.832415       -0.0000916
 BFGS       P_PAR(1)                  2.615234       -0.0000252
 BFGS       P_PAR(2)                  2.841696       -0.0000079
 BFGS       D_PAR(1)                  4.728506        0.0000212
 BFGS       D_PAR(2)                  1.719460        0.0000274
 BFGS       F_PAR(1)                 16.043946        0.0000304
 BFGS       G_PAR(1)                  3.303495        0.0000025
 BFGS       H_PAR(1)                  1.045130       -0.0000364

 BFGS update of inverse hessian 

 Results for BFGS iteration   36       Current function value  =       -127.215255575
                                     Previous function value =       -127.215254964
 Current variables and gradients:
 BFGS       S_PAR(1)                  1.695305       -0.0001001
 BFGS       S_PAR(2)                  1.846253       -0.0000808
 BFGS       P_PAR(1)                  2.604276       -0.0000338
 BFGS       P_PAR(2)                  2.836153       -0.0000141
 BFGS       D_PAR(1)                  4.718468        0.0000192
 BFGS       D_PAR(2)                  1.717018        0.0000093
 BFGS       F_PAR(1)                 16.080209        0.0000612
 BFGS       G_PAR(1)                  3.311692        0.0000119
 BFGS       H_PAR(1)                  1.043688       -0.0000681

 BFGS update of inverse hessian 

 Results for BFGS iteration   37       Current function value  =       -127.215256759
                                     Previous function value =       -127.215255575
 Current variables and gradients:
 BFGS       S_PAR(1)                  1.709643       -0.0000869
 BFGS       S_PAR(2)                  1.867110       -0.0000612
 BFGS       P_PAR(1)                  2.585055       -0.0000424
 BFGS       P_PAR(2)                  2.841573       -0.0000191
 BFGS       D_PAR(1)                  4.699675        0.0000147
 BFGS       D_PAR(2)                  1.713505       -0.0000145
 BFGS       F_PAR(1)                 16.118377        0.0000935
 BFGS       G_PAR(1)                  3.320734        0.0000224
 BFGS       H_PAR(1)                  1.042244       -0.0001000

 BFGS update of inverse hessian 

 Results for BFGS iteration   38       Current function value  =       -127.215258794
                                     Previous function value =       -127.215256759
 Current variables and gradients:
 BFGS       S_PAR(1)                  1.745213       -0.0000595
 BFGS       S_PAR(2)                  1.895586       -0.0000281
 BFGS       P_PAR(1)                  2.553950       -0.0000466
 BFGS       P_PAR(2)                  2.874174       -0.0000182
 BFGS       D_PAR(1)                  4.667256        0.0000058
 BFGS       D_PAR(2)                  1.709330       -0.0000382
 BFGS       F_PAR(1)                 16.139936        0.0001118
 BFGS       G_PAR(1)                  3.326796        0.0000298
 BFGS       H_PAR(1)                  1.041541       -0.0001153

 BFGS update of inverse hessian 

 Results for BFGS iteration   39       Current function value  =       -127.215260782
                                     Previous function value =       -127.215258794
 Current variables and gradients:
 BFGS       S_PAR(1)                  1.792498       -0.0000281
 BFGS       S_PAR(2)                  1.913595        0.0000028
 BFGS       P_PAR(1)                  2.526919       -0.0000372
 BFGS       P_PAR(2)                  2.933690       -0.0000056
 BFGS       D_PAR(1)                  4.636433       -0.0000045
 BFGS       D_PAR(2)                  1.707616       -0.0000402
 BFGS       F_PAR(1)                 16.107134        0.0000843
 BFGS       G_PAR(1)                  3.320988        0.0000242
 BFGS       H_PAR(1)                  1.042930       -0.0000839

 BFGS update of inverse hessian 

 Results for BFGS iteration   40       Current function value  =       -127.215261721
                                     Previous function value =       -127.215260782
 Current variables and gradients:
 BFGS       S_PAR(1)                  1.822790       -0.0000131
 BFGS       S_PAR(2)                  1.908305        0.0000108
 BFGS       P_PAR(1)                  2.519055       -0.0000202
 BFGS       P_PAR(2)                  2.983311        0.0000105
 BFGS       D_PAR(1)                  4.627194       -0.0000092
 BFGS       D_PAR(2)                  1.709532       -0.0000199
 BFGS       F_PAR(1)                 16.042507        0.0000296
 BFGS       G_PAR(1)                  3.307245        0.0000091
 BFGS       H_PAR(1)                  1.045424       -0.0000288

 PROGRAM * MINIMIZE (General minimization)     Authors: H.-J. Werner, P.J. Knowles, K.A. Peterson


 Minimization of EVAL using the BFGS method has converged after   40 iterations


 Running procedure=OPT_BASIS
 SETTING BASIS          =    USERDEF


 Current variables in basis input:

 Set= 1  S_PAR(1)            =       1.82279036
 Set= 1  S_PAR(2)            =       1.90830484
 Set= 1  P_PAR(1)            =       2.51905532
 Set= 1  P_PAR(2)            =       2.98331100
 Set= 1  D_PAR(1)            =       4.62719436
 Set= 1  D_PAR(2)            =       1.70953244
 Set= 1  F_PAR(1)            =      16.04250728
 Set= 1  G_PAR(1)            =       3.30724530
 Set= 1  H_PAR(1)            =       1.04542356

 Recomputing integrals since basis changed


 Using spherical harmonics



 PROGRAM * SEWARD (Integral evaluation for generally contracted gaussian basis sets)     Author: Roland Lindh, 1990

 Geometry written to block  1 of record 700

 Orientation using atomic masses  
 Molecule type: Atom
 Symmetry elements: X,Y,Z
 Rotational constants:       0.0000000      0.0000000      0.0000000 GHz  (calculated with average atomic masses)

 Point group  D2h 



 ATOMIC COORDINATES

 NR  ATOM    CHARGE       X              Y              Z

   1  PD     18.00    0.000000000    0.000000000    0.000000000


          PD  CORE POTENTIAL

          f POTENTIAL

 POWERS             1              3              2              2
 EXPONENTIALS   15.99766       15.96401       16.12888       9.592539    
 COEFFICIENTS   18.00000       287.9579      -176.3826      -44.25362    

          s - f POTENTIAL

 POWERS             2              2              2
 EXPONENTIALS   12.45165       6.301508       9.656958    
 COEFFICIENTS   222.0049       55.83859       4.624354    

          p - f POTENTIAL

 POWERS             2              2              2
 EXPONENTIALS   12.37601       5.706187       9.850179    
 COEFFICIENTS   166.6450       42.68117       28.72135    

          d - f POTENTIAL

 POWERS             2              2              2
 EXPONENTIALS   7.923467       3.358692       9.195344    
 COEFFICIENTS   53.57659       4.674921       57.97681    


 BASIS DATA

   Nr Sym  Nuc  Type         Exponents   Contraction coefficients

    1.1 Ag    1  1s         226.982057    -0.000123    0.000117   -0.000063   -0.001908    0.008138    0.000000
    2.1 Ag                  107.971612     0.000586   -0.000580    0.000309    0.009521   -0.040699    0.000000
    3.1 Ag                   51.360311    -0.001037    0.001695   -0.000590   -0.029954    0.127068    0.000000
    4.1 Ag                   24.431251    -0.013924   -0.002148   -0.007717    0.094695   -0.363306    0.000000
    5.1 Ag                   11.621542     0.200098   -0.019262    0.119010   -0.416458    1.256213    0.000000
    6.1 Ag                    5.528176    -0.676779    0.084919   -0.425622    1.261804   -4.003174    0.000000
                              2.629662     0.045446    0.022876   -0.051799   -0.579822    6.713429    0.000000
                              1.250887     0.857855   -0.244520    1.109581   -3.177434   -3.944306    0.000000
                              0.595026     0.366386    0.091710    0.219221    4.036898   -2.327527    0.000000
                              0.283044     0.052708   -0.417493   -0.869582   -0.556360    5.490862    0.000000
                              0.134639    -0.007355    0.856225   -0.507150   -0.841919   -3.312612    0.000000
                              0.064046     0.004478   -1.233857   -0.060316   -0.212786    0.567986    0.000000
                              0.030465    -0.001187    1.683095    0.000652    0.021290   -0.216586    1.000000
    7.1 Ag    1  1s           1.822790     1.000000
    8.1 Ag    1  1s           1.908305     1.000000
    9.1 Ag    1  3d0         24.858557     0.002857
                             13.807567     0.008324
                              7.669347    -0.032165
                              4.259902     0.041986
                              2.366142     0.187147
                              1.314262     0.274091
                              0.730001     0.274162
                              0.405475     0.223394
                              0.225219     0.156376
                              0.125097     0.088573
                              0.069485     0.033732
                              0.038595     0.005858
                              0.021437     0.000243
   10.1 Ag    1  3d2+        24.858557     0.002857
                             13.807567     0.008324
                              7.669347    -0.032165
                              4.259902     0.041986
                              2.366142     0.187147
                              1.314262     0.274091
                              0.730001     0.274162
                              0.405475     0.223394
                              0.225219     0.156376
                              0.125097     0.088573
                              0.069485     0.033732
                              0.038595     0.005858
                              0.021437     0.000243
   11.1 Ag    1  3d0         24.858557    -0.004007
                             13.807567    -0.009816
                              7.669347     0.040598
                              4.259902    -0.059887
                              2.366142    -0.292809
                              1.314262    -0.381848
                              0.730001    -0.112906
                              0.405475     0.234947
                              0.225219     0.363251
                              0.125097     0.275550
                              0.069485     0.128792
                              0.038595     0.028454
                              0.021437     0.001243
   12.1 Ag    1  3d2+        24.858557    -0.004007
                             13.807567    -0.009816
                              7.669347     0.040598
                              4.259902    -0.059887
                              2.366142    -0.292809
                              1.314262    -0.381848
                              0.730001    -0.112906
                              0.405475     0.234947
                              0.225219     0.363251
                              0.125097     0.275550
                              0.069485     0.128792
                              0.038595     0.028454
                              0.021437     0.001243
   13.1 Ag    1  3d0         24.858557    -0.006065
                             13.807567    -0.014128
                              7.669347     0.063530
                              4.259902    -0.089104
                              2.366142    -0.687019
                              1.314262    -0.222398
                              0.730001     0.792038
                              0.405475     0.461827
                              0.225219    -0.210862
                              0.125097    -0.397527
                              0.069485    -0.220040
                              0.038595    -0.055864
                              0.021437    -0.001842
   14.1 Ag    1  3d2+        24.858557    -0.006065
                             13.807567    -0.014128
                              7.669347     0.063530
                              4.259902    -0.089104
                              2.366142    -0.687019
                              1.314262    -0.222398
                              0.730001     0.792038
                              0.405475     0.461827
                              0.225219    -0.210862
                              0.125097    -0.397527
                              0.069485    -0.220040
                              0.038595    -0.055864
                              0.021437    -0.001842
   15.1 Ag    1  3d0         24.858557    -0.005701
                             13.807567    -0.041076
                              7.669347     0.177748
                              4.259902    -0.401551
                              2.366142    -1.233635
                              1.314262     1.629425
                              0.730001     0.479913
                              0.405475    -1.170492
                              0.225219    -0.247151
                              0.125097     0.369970
                              0.069485     0.335028
                              0.038595     0.079693
                              0.021437     0.005779
   16.1 Ag    1  3d2+        24.858557    -0.005701
                             13.807567    -0.041076
                              7.669347     0.177748
                              4.259902    -0.401551
                              2.366142    -1.233635
                              1.314262     1.629425
                              0.730001     0.479913
                              0.405475    -1.170492
                              0.225219    -0.247151
                              0.125097     0.369970
                              0.069485     0.335028
                              0.038595     0.079693
                              0.021437     0.005779
   17.1 Ag    1  3d0         24.858557     0.000000
                             13.807567     0.000000
                              7.669347     0.000000
                              4.259902     0.000000
                              2.366142     0.000000
                              1.314262     0.000000
                              0.730001     0.000000
                              0.405475     0.000000
                              0.225219     0.000000
                              0.125097     0.000000
                              0.069485     0.000000
                              0.038595     0.000000
                              0.021437     1.000000
   18.1 Ag    1  3d2+        24.858557     0.000000
                             13.807567     0.000000
                              7.669347     0.000000
                              4.259902     0.000000
                              2.366142     0.000000
                              1.314262     0.000000
                              0.730001     0.000000
                              0.405475     0.000000
                              0.225219     0.000000
                              0.125097     0.000000
                              0.069485     0.000000
                              0.038595     0.000000
                              0.021437     1.000000
   19.1 Ag    1  3d0          4.627194     1.000000
   20.1 Ag    1  3d2+         4.627194     1.000000
   21.1 Ag    1  3d0          1.709532     1.000000
   22.1 Ag    1  3d2+         1.709532     1.000000
   23.1 Ag    1  5g0          2.752407     1.000000
   24.1 Ag    1  5g4+         2.752407     1.000000
   25.1 Ag    1  5g2+         2.752407     1.000000
   26.1 Ag    1  5g0          1.007272     1.000000
   27.1 Ag    1  5g4+         1.007272     1.000000
   28.1 Ag    1  5g2+         1.007272     1.000000
   29.1 Ag    1  5g0          3.307245     1.000000
   30.1 Ag    1  5g4+         3.307245     1.000000
   31.1 Ag    1  5g2+         3.307245     1.000000
    1.2 B3u   1  2px         49.528556    -0.000125    0.000176   -0.000014   -0.012211    0.053745    0.000000
    2.2 B3u                  26.116743    -0.001273    0.000339    0.002075    0.063332   -0.275923    0.000000
    3.2 B3u                  13.771535     0.038171   -0.025564   -0.041847   -0.251945    0.979303    0.000000
    4.2 B3u                   7.261824    -0.174047    0.127568    0.173144    0.769673   -2.971680    0.000000
    5.2 B3u                   3.829209    -0.041692    0.040787    0.307947   -0.397351    5.445539    0.000000
    6.2 B3u                   2.019168     0.413749   -0.439452   -1.596670   -3.018892   -3.694725    0.000000
                              1.064721     0.450821   -0.442802    0.190811    4.961124   -1.823365    0.000000
                              0.561434     0.251837    0.193319    1.623239   -2.316344    6.249021    0.000000
                              0.296048     0.051165    0.566241   -0.253493   -0.828485   -6.109773    0.000000
                              0.156108     0.011161    0.374898   -0.637836    0.593295    2.758959    0.000000
                              0.082317    -0.002018    0.092881   -0.260561    0.473889   -0.636491    0.000000
                              0.043406     0.001463    0.007271   -0.000879   -0.016521    0.587537    0.000000
                              0.022888    -0.000389    0.000254   -0.005207    0.013812   -0.143796    1.000000
    7.2 B3u   1  2px          2.519055     1.000000
    8.2 B3u   1  2px          2.983311     1.000000
    9.2 B3u   1  4f1+         4.184954     1.000000
   10.2 B3u   1  4f3+         4.184954     1.000000
   11.2 B3u   1  4f1+         1.438597     1.000000
   12.2 B3u   1  4f3+         1.438597     1.000000
   13.2 B3u   1  4f1+         0.494524     1.000000
   14.2 B3u   1  4f3+         0.494524     1.000000
   15.2 B3u   1  4f1+        16.042507     1.000000
   16.2 B3u   1  4f3+        16.042507     1.000000
   17.2 B3u   1  6h1+         2.219273     1.000000
   18.2 B3u   1  6h3+         2.219273     1.000000
   19.2 B3u   1  6h5+         2.219273     1.000000
   20.2 B3u   1  6h1+         1.045424     1.000000
   21.2 B3u   1  6h3+         1.045424     1.000000
   22.2 B3u   1  6h5+         1.045424     1.000000
    1.3 B2u   1  2py         49.528556    -0.000125    0.000176   -0.000014   -0.012211    0.053745    0.000000
    2.3 B2u                  26.116743    -0.001273    0.000339    0.002075    0.063332   -0.275923    0.000000
    3.3 B2u                  13.771535     0.038171   -0.025564   -0.041847   -0.251945    0.979303    0.000000
    4.3 B2u                   7.261824    -0.174047    0.127568    0.173144    0.769673   -2.971680    0.000000
    5.3 B2u                   3.829209    -0.041692    0.040787    0.307947   -0.397351    5.445539    0.000000
    6.3 B2u                   2.019168     0.413749   -0.439452   -1.596670   -3.018892   -3.694725    0.000000
                              1.064721     0.450821   -0.442802    0.190811    4.961124   -1.823365    0.000000
                              0.561434     0.251837    0.193319    1.623239   -2.316344    6.249021    0.000000
                              0.296048     0.051165    0.566241   -0.253493   -0.828485   -6.109773    0.000000
                              0.156108     0.011161    0.374898   -0.637836    0.593295    2.758959    0.000000
                              0.082317    -0.002018    0.092881   -0.260561    0.473889   -0.636491    0.000000
                              0.043406     0.001463    0.007271   -0.000879   -0.016521    0.587537    0.000000
                              0.022888    -0.000389    0.000254   -0.005207    0.013812   -0.143796    1.000000
    7.3 B2u   1  2py          2.519055     1.000000
    8.3 B2u   1  2py          2.983311     1.000000
    9.3 B2u   1  4f1-         4.184954     1.000000
   10.3 B2u   1  4f3-         4.184954     1.000000
   11.3 B2u   1  4f1-         1.438597     1.000000
   12.3 B2u   1  4f3-         1.438597     1.000000
   13.3 B2u   1  4f1-         0.494524     1.000000
   14.3 B2u   1  4f3-         0.494524     1.000000
   15.3 B2u   1  4f1-        16.042507     1.000000
   16.3 B2u   1  4f3-        16.042507     1.000000
   17.3 B2u   1  6h1-         2.219273     1.000000
   18.3 B2u   1  6h3-         2.219273     1.000000
   19.3 B2u   1  6h5-         2.219273     1.000000
   20.3 B2u   1  6h1-         1.045424     1.000000
   21.3 B2u   1  6h3-         1.045424     1.000000
   22.3 B2u   1  6h5-         1.045424     1.000000
    1.4 B1g   1  3d2-        24.858557     0.002857   -0.004007   -0.006065   -0.005701    0.000000
    2.4 B1g                  13.807567     0.008324   -0.009816   -0.014128   -0.041076    0.000000
    3.4 B1g                   7.669347    -0.032165    0.040598    0.063530    0.177748    0.000000
    4.4 B1g                   4.259902     0.041986   -0.059887   -0.089104   -0.401551    0.000000
    5.4 B1g                   2.366142     0.187147   -0.292809   -0.687019   -1.233635    0.000000
                              1.314262     0.274091   -0.381848   -0.222398    1.629425    0.000000
                              0.730001     0.274162   -0.112906    0.792038    0.479913    0.000000
                              0.405475     0.223394    0.234947    0.461827   -1.170492    0.000000
                              0.225219     0.156376    0.363251   -0.210862   -0.247151    0.000000
                              0.125097     0.088573    0.275550   -0.397527    0.369970    0.000000
                              0.069485     0.033732    0.128792   -0.220040    0.335028    0.000000
                              0.038595     0.005858    0.028454   -0.055864    0.079693    0.000000
                              0.021437     0.000243    0.001243   -0.001842    0.005779    1.000000
    6.4 B1g   1  3d2-         4.627194     1.000000
    7.4 B1g   1  3d2-         1.709532     1.000000
    8.4 B1g   1  5g2-         2.752407     1.000000
    9.4 B1g   1  5g4-         2.752407     1.000000
   10.4 B1g   1  5g2-         1.007272     1.000000
   11.4 B1g   1  5g4-         1.007272     1.000000
   12.4 B1g   1  5g2-         3.307245     1.000000
   13.4 B1g   1  5g4-         3.307245     1.000000
    1.5 B1u   1  2pz         49.528556    -0.000125    0.000176   -0.000014   -0.012211    0.053745    0.000000
    2.5 B1u                  26.116743    -0.001273    0.000339    0.002075    0.063332   -0.275923    0.000000
    3.5 B1u                  13.771535     0.038171   -0.025564   -0.041847   -0.251945    0.979303    0.000000
    4.5 B1u                   7.261824    -0.174047    0.127568    0.173144    0.769673   -2.971680    0.000000
    5.5 B1u                   3.829209    -0.041692    0.040787    0.307947   -0.397351    5.445539    0.000000
    6.5 B1u                   2.019168     0.413749   -0.439452   -1.596670   -3.018892   -3.694725    0.000000
                              1.064721     0.450821   -0.442802    0.190811    4.961124   -1.823365    0.000000
                              0.561434     0.251837    0.193319    1.623239   -2.316344    6.249021    0.000000
                              0.296048     0.051165    0.566241   -0.253493   -0.828485   -6.109773    0.000000
                              0.156108     0.011161    0.374898   -0.637836    0.593295    2.758959    0.000000
                              0.082317    -0.002018    0.092881   -0.260561    0.473889   -0.636491    0.000000
                              0.043406     0.001463    0.007271   -0.000879   -0.016521    0.587537    0.000000
                              0.022888    -0.000389    0.000254   -0.005207    0.013812   -0.143796    1.000000
    7.5 B1u   1  2pz          2.519055     1.000000
    8.5 B1u   1  2pz          2.983311     1.000000
    9.5 B1u   1  4f0          4.184954     1.000000
   10.5 B1u   1  4f2+         4.184954     1.000000
   11.5 B1u   1  4f0          1.438597     1.000000
   12.5 B1u   1  4f2+         1.438597     1.000000
   13.5 B1u   1  4f0          0.494524     1.000000
   14.5 B1u   1  4f2+         0.494524     1.000000
   15.5 B1u   1  4f0         16.042507     1.000000
   16.5 B1u   1  4f2+        16.042507     1.000000
   17.5 B1u   1  6h2+         2.219273     1.000000
   18.5 B1u   1  6h4+         2.219273     1.000000
   19.5 B1u   1  6h0          2.219273     1.000000
   20.5 B1u   1  6h2+         1.045424     1.000000
   21.5 B1u   1  6h4+         1.045424     1.000000
   22.5 B1u   1  6h0          1.045424     1.000000
    1.6 B2g   1  3d1+        24.858557     0.002857   -0.004007   -0.006065   -0.005701    0.000000
    2.6 B2g                  13.807567     0.008324   -0.009816   -0.014128   -0.041076    0.000000
    3.6 B2g                   7.669347    -0.032165    0.040598    0.063530    0.177748    0.000000
    4.6 B2g                   4.259902     0.041986   -0.059887   -0.089104   -0.401551    0.000000
    5.6 B2g                   2.366142     0.187147   -0.292809   -0.687019   -1.233635    0.000000
                              1.314262     0.274091   -0.381848   -0.222398    1.629425    0.000000
                              0.730001     0.274162   -0.112906    0.792038    0.479913    0.000000
                              0.405475     0.223394    0.234947    0.461827   -1.170492    0.000000
                              0.225219     0.156376    0.363251   -0.210862   -0.247151    0.000000
                              0.125097     0.088573    0.275550   -0.397527    0.369970    0.000000
                              0.069485     0.033732    0.128792   -0.220040    0.335028    0.000000
                              0.038595     0.005858    0.028454   -0.055864    0.079693    0.000000
                              0.021437     0.000243    0.001243   -0.001842    0.005779    1.000000
    6.6 B2g   1  3d1+         4.627194     1.000000
    7.6 B2g   1  3d1+         1.709532     1.000000
    8.6 B2g   1  5g1+         2.752407     1.000000
    9.6 B2g   1  5g3+         2.752407     1.000000
   10.6 B2g   1  5g1+         1.007272     1.000000
   11.6 B2g   1  5g3+         1.007272     1.000000
   12.6 B2g   1  5g1+         3.307245     1.000000
   13.6 B2g   1  5g3+         3.307245     1.000000
    1.7 B3g   1  3d1-        24.858557     0.002857   -0.004007   -0.006065   -0.005701    0.000000
    2.7 B3g                  13.807567     0.008324   -0.009816   -0.014128   -0.041076    0.000000
    3.7 B3g                   7.669347    -0.032165    0.040598    0.063530    0.177748    0.000000
    4.7 B3g                   4.259902     0.041986   -0.059887   -0.089104   -0.401551    0.000000
    5.7 B3g                   2.366142     0.187147   -0.292809   -0.687019   -1.233635    0.000000
                              1.314262     0.274091   -0.381848   -0.222398    1.629425    0.000000
                              0.730001     0.274162   -0.112906    0.792038    0.479913    0.000000
                              0.405475     0.223394    0.234947    0.461827   -1.170492    0.000000
                              0.225219     0.156376    0.363251   -0.210862   -0.247151    0.000000
                              0.125097     0.088573    0.275550   -0.397527    0.369970    0.000000
                              0.069485     0.033732    0.128792   -0.220040    0.335028    0.000000
                              0.038595     0.005858    0.028454   -0.055864    0.079693    0.000000
                              0.021437     0.000243    0.001243   -0.001842    0.005779    1.000000
    6.7 B3g   1  3d1-         4.627194     1.000000
    7.7 B3g   1  3d1-         1.709532     1.000000
    8.7 B3g   1  5g1-         2.752407     1.000000
    9.7 B3g   1  5g3-         2.752407     1.000000
   10.7 B3g   1  5g1-         1.007272     1.000000
   11.7 B3g   1  5g3-         1.007272     1.000000
   12.7 B3g   1  5g1-         3.307245     1.000000
   13.7 B3g   1  5g3-         3.307245     1.000000
    1.8 Au    1  4f2-         4.184954     1.000000
    2.8 Au    1  4f2-         1.438597     1.000000
    3.8 Au    1  4f2-         0.494524     1.000000
    4.8 Au    1  4f2-        16.042507     1.000000
    5.8 Au    1  6h4-         2.219273     1.000000
    6.8 Au    1  6h2-         2.219273     1.000000
    7.8 Au    1  6h4-         1.045424     1.000000
    8.8 Au    1  6h2-         1.045424     1.000000

 NUCLEAR CHARGE:                   18
 NUMBER OF PRIMITIVE AOS:         277
 NUMBER OF SYMMETRY AOS:          212
 NUMBER OF CONTRACTIONS:          144   (  31Ag  +  22B3u +  22B2u +  13B1g +  22B1u +  13B2g +  13B3g +   8Au  )
 NUMBER OF CORE ORBITALS:           4   (   1Ag  +   1B3u +   1B2u +   0B1g +   1B1u +   0B2g +   0B3g +   0Au  )
 NUMBER OF VALENCE ORBITALS:        6   (   3Ag  +   0B3u +   0B2u +   1B1g +   0B1u +   1B2g +   1B3g +   0Au  )


 NUCLEAR REPULSION ENERGY    0.00000000


 Maximum number of basis and dump records reached. Truncating dump files before previous basis set!

 EXTRA SYMMETRY OF AOS IN SYMMETRY 1:   1 1 1 1 1 1 1 1 2 3   2 3 2 3 2 3 2 3 2 3   2 3 4 5 6 4 5 6 4 5   6
 EXTRA SYMMETRY OF AOS IN SYMMETRY 2:   1 1 1 1 1 1 1 1 2 3   2 3 2 3 2 3 4 5 6 4   5 6
 EXTRA SYMMETRY OF AOS IN SYMMETRY 3:   1 1 1 1 1 1 1 1 2 3   2 3 2 3 2 3 4 5 6 4   5 6
 EXTRA SYMMETRY OF AOS IN SYMMETRY 4:   1 1 1 1 1 1 1 2 3 2   3 2 3
 EXTRA SYMMETRY OF AOS IN SYMMETRY 5:   1 1 1 1 1 1 1 1 2 3   2 3 2 3 2 3 4 5 6 4   5 6
 EXTRA SYMMETRY OF AOS IN SYMMETRY 6:   1 1 1 1 1 1 1 2 3 2   3 2 3
 EXTRA SYMMETRY OF AOS IN SYMMETRY 7:   1 1 1 1 1 1 1 2 3 2   3 2 3
 EXTRA SYMMETRY OF AOS IN SYMMETRY 8:   1 1 1 1 2 3 2 3

 Eigenvalues of metric

         1 0.180E-05 0.892E-03 0.892E-03 0.650E-02 0.144E-01 0.144E-01 0.144E-01 0.121E+00
         2 0.354E-04 0.572E-01 0.254E+00 0.254E+00 0.362E+00 0.362E+00 0.362E+00 0.401E+00
         3 0.354E-04 0.572E-01 0.254E+00 0.254E+00 0.362E+00 0.362E+00 0.362E+00 0.401E+00
         4 0.892E-03 0.144E-01 0.144E-01 0.121E+00 0.530E+00 0.687E+00 0.687E+00 0.998E+00
         5 0.354E-04 0.572E-01 0.254E+00 0.254E+00 0.362E+00 0.362E+00 0.362E+00 0.401E+00
         6 0.892E-03 0.144E-01 0.144E-01 0.121E+00 0.530E+00 0.687E+00 0.687E+00 0.998E+00
         7 0.892E-03 0.144E-01 0.144E-01 0.121E+00 0.530E+00 0.687E+00 0.687E+00 0.998E+00
         8 0.254E+00 0.362E+00 0.362E+00 0.669E+00 0.118E+01 0.164E+01 0.164E+01 0.190E+01


 Contracted 2-electron integrals neglected if value below      1.0D-12
 AO integral compression algorithm  1   Integral accuracy      1.0D-12

     52.167 MB (compressed) written to integral file ( 57.0%)

     Node minimum: 1.049 MB, node maximum: 6.029 MB


 NUMBER OF SORTED TWO-ELECTRON INTEGRALS:     472653.     BUFFER LENGTH:  32768
 NUMBER OF SEGMENTS:   1  SEGMENT LENGTH:     472653      RECORD LENGTH: 524288

 Memory used in sort:       1.03 MW

 SORT1 READ    11599838. AND WROTE      332292. INTEGRALS IN      1 RECORDS. CPU TIME:     0.31 SEC, REAL TIME:     0.34 SEC
 SORT2 READ     4948094. AND WROTE     7063297. INTEGRALS IN    225 RECORDS. CPU TIME:     0.02 SEC, REAL TIME:     0.05 SEC

 Node minimum:      452710.  Node maximum:      487861. integrals

 OPERATOR DM      FOR CENTER  0  COORDINATES:    0.000000    0.000000    0.000000


 **********************************************************************************************************************************
 DATASETS  * FILE   NREC   LENGTH (MB)   RECORD NAMES
              1      19       20.06       500      610      700      900      950      970     1029      129      960     1100   
                                          VAR    BASINP    GEOM    SYMINP    ZMAT    AOBASIS   BASIS     P2S    ABASIS      S 
                                         1400     1410     1420     1200     1210     1080     1600     1650     1700   
                                           T        V       ECP      H0       H01     AOSYM     SMH    MOLCAS    OPER   

              2      91      153.55       200      700     1000      520     4302     2101     1001     4302     2102     1002   
                                        OPTIONS   GEOM     BASIS   MCVARS     RHF      RHF     BASIS     RHF      RHF     BASIS   
                                         4302     2103     1003     4302     2104     1004     4302     2105     1005     4302   
                                          RHF      RHF     BASIS     RHF      RHF     BASIS     RHF      RHF     BASIS     RHF  
                                         2106     1006     4302     2107     1007     4302     2108     1008     4302     2109   
                                          RHF     BASIS     RHF      RHF     BASIS     RHF      RHF     BASIS     RHF      RHF  
                                         1009     4302     2110     1010     4302     2111     1011     4302     2112     1012   
                                         BASIS     RHF      RHF     BASIS     RHF      RHF     BASIS     RHF      RHF     BASIS   
                                         4302     2113     1013     4302     2114     1014     4302     2115     1015     4302   
                                          RHF      RHF     BASIS     RHF      RHF     BASIS     RHF      RHF     BASIS     RHF  
                                         2116     1016     4302     2117     1017     4302     2118     1018     4302     2119   
                                          RHF     BASIS     RHF      RHF     BASIS     RHF      RHF     BASIS     RHF      RHF  
                                         1019     4302     2120     1020     4302     2121     1021     4302     2122     1022   
                                         BASIS     RHF      RHF     BASIS     RHF      RHF     BASIS     RHF      RHF     BASIS   
                                         4302     2123     1023     4302     2124     1024     4302     2125     1025     4302   
                                          RHF      RHF     BASIS     RHF      RHF     BASIS     RHF      RHF     BASIS     RHF  
                                         2126     1026     4302     2127     1027     4302     2128     1028     4302     2129   
                                          RHF     BASIS     RHF      RHF     BASIS     RHF      RHF     BASIS     RHF      RHF  
                                         1029   
                                         BASIS   

 PROGRAMS   *        TOTAL       INT        CI      DATA       RHF       RHF       INT        CI      DATA       RHF       RHF
 CPU TIMES  *      2168.55      2.00      0.45      0.00      0.09      0.27      1.84      0.64      0.00      0.18      0.06
 REAL TIME  *      3487.17 SEC
 DISK USED  *         2.82 GB      
 SF USED    *        13.92 MB      
 GA USED    *         0.00 MB       (max)       0.00 MB       (current)
 **********************************************************************************************************************************


 PROGRAM * RHF-SCF (CLOSED SHELL)       Authors: W. Meyer, H.-J. Werner


 NUMBER OF ELECTRONS:       9+    9-    SPACE SYMMETRY=1    SPIN SYMMETRY: Singlet 
 CONVERGENCE THRESHOLDS:    1.00E-05 (Density)    1.00E-07 (Energy)
 MAX. NUMBER OF ITERATIONS:       60
 INTERPOLATION TYPE:            DIIS
 INTERPOLATION STEPS:              2 (START)      1 (STEP)
 LEVEL SHIFTS:                  0.00 (CLOSED)  0.00 (OPEN) 

 Number of closed-shell orbitals:    9 (   3   1   1   1   1   1   1   0 )


 
 Extra symmetries of mos in symmetry 1:   1   3   2

   Atom=PD basis=cc-pVTZ-PP        lmin=0  lmax=2

 Orbital guess generated from atomic densities. Full valence occupancy:    4   1   1   1   1   1   1   0


 Molecular orbital dump at record        4202.2

 ITERATION    DDIFF          GRAD             ENERGY        2-EL.EN.            DIPOLE MOMENTS         DIIS   ORB.
    1      0.000D+00      0.000D+00      -126.46023448    207.017319    0.00000    0.00000    0.00000    0    start
    2      0.000D+00      0.182D-01      -126.46365585    197.840362    0.00000    0.00000    0.00000    1    diag
    3      0.119D-01      0.199D-01      -126.49834454    202.097110    0.00000    0.00000    0.00000    2    diag
    4      0.430D-02      0.867D-03      -126.49839877    202.221497    0.00000    0.00000    0.00000    3    diag
    5      0.299D-03      0.992D-04      -126.49839963    202.238900    0.00000    0.00000    0.00000    4    diag
    6      0.473D-04      0.446D-05      -126.49839963    202.238893    0.00000    0.00000    0.00000    5    diag
    7      0.753D-05      0.511D-06      -126.49839963    202.239050    0.00000    0.00000    0.00000    0    orth

 Final occupancy:   3   1   1   1   1   1   1   0

 !RHF STATE 1.1 Energy               -126.498399630211
 Nuclear energy                         0.00000000
 One-electron energy                 -227.61792484
 Two-electron energy                  101.11952521
 Virial quotient                       -2.61644025
 !RHF STATE 1.1 Dipole moment           0.00000000     0.00000000     0.00000000
 Dipole moment /Debye                   0.00000000     0.00000000     0.00000000

 ELECTRON ORBITALS
 =================


   Orb  Occ    Energy  Couls-En    Coefficients

                                   1 1s      1 1s      1 1s      1 1s      1 1s      1 1s      1 1s      1 1s      1 3d0     1 3d2+ 
                                   1 3d0     1 3d2+    1 3d0     1 3d2+    1 3d0     1 3d2+    1 3d0     1 3d2+    1 3d0     1 3d2+ 
                                   1 3d0     1 3d2+    1 5g0     1 5g4+    1 5g2+    1 5g0     1 5g4+    1 5g2+    1 5g0     1 5g4+ 
                                   1 5g2+ 

   1.1   2    -3.8402  -20.1006  0.997793 -0.000405 -0.000107  0.000119  0.000271  0.000586  0.049890 -0.048319 -0.000000  0.000000
                                 0.000000 -0.000000  0.000000 -0.000000  0.000000  0.000000 -0.000000 -0.000000  0.000000 -0.000000
                                 0.000000 -0.000000 -0.000000 -0.000000 -0.000000  0.000000  0.000000  0.000000  0.000000  0.000000
                                 0.000000

   2.1   2    -0.3285  -11.1259  0.000000 -0.000000  0.000000 -0.000000 -0.000000  0.000000 -0.000000  0.000000 -0.000428  1.000048
                                 0.000000 -0.000032  0.000000 -0.000017 -0.000000  0.000003  0.000000 -0.000003  0.000000 -0.000003
                                 0.000000 -0.000058  0.000000  0.000000 -0.000000 -0.000000  0.000000  0.000000 -0.000000 -0.000000
                                 0.000000

   3.1   2    -0.3285  -11.1259  0.000000  0.000000 -0.000000 -0.000000 -0.000000 -0.000000 -0.000000  0.000000  1.000048  0.000428
                                -0.000032 -0.000000 -0.000017 -0.000000  0.000003  0.000000 -0.000003 -0.000000 -0.000003 -0.000000
                                -0.000058 -0.000000 -0.000000  0.000000  0.000000  0.000000 -0.000000 -0.000000  0.000000 -0.000000
                                -0.000000

   4.1   0     0.0187   -3.9062 -0.007432  1.001763  0.000048  0.000742  0.001176 -0.000840  0.182365 -0.176510  0.000000 -0.000000
                                -0.000000 -0.000000 -0.000000 -0.000000  0.000000  0.000000 -0.000000 -0.000000 -0.000000 -0.000000
                                -0.000000 -0.000000  0.000000  0.000000  0.000000 -0.000000 -0.000000 -0.000000 -0.000000 -0.000000
                                -0.000000

   5.1   0     0.0743   -2.0362 -0.000000  0.000000  0.000000  0.000000  0.000000 -0.000000  0.000000 -0.000000 -0.187852 -0.000763
                                 0.009789  0.000040  0.067351  0.000273 -0.027579 -0.000112  1.035324  0.004204 -0.001305 -0.000005
                                 0.114225  0.000464  0.000000 -0.000000  0.000000 -0.000000  0.000000 -0.000000 -0.000000  0.000000
                                -0.000000

                                   1 2px     1 2px     1 2px     1 2px     1 2px     1 2px     1 2px     1 2px     1 4f1+    1 4f3+ 
                                   1 4f1+    1 4f3+    1 4f1+    1 4f3+    1 4f1+    1 4f3+    1 6h1+    1 6h3+    1 6h5+    1 6h1+ 
                                   1 6h3+    1 6h5+ 

   1.2   2    -2.4023  -16.9228  0.999352  0.000220  0.000162  0.000046  0.000052 -0.000018  0.002944 -0.002330 -0.000000  0.000000
                                 0.000000  0.000000  0.000000  0.000000 -0.000000  0.000000  0.000000  0.000000 -0.000000  0.000000
                                -0.000000  0.000000

   2.2   0     0.0511   -2.6908  0.081007 -0.076837 -0.002808 -0.031118 -0.025090  1.033841 -0.678405  0.539805  0.000000 -0.000000
                                 0.000000 -0.000000 -0.000000 -0.000000  0.000000 -0.000000  0.000000  0.000000 -0.000000  0.000000
                                -0.000000  0.000000

   3.2   0     0.2835   -4.7335 -1.484398  1.439085 -0.224197  0.401479  0.285055 -0.604445  7.075639 -5.653247  0.000000  0.000000
                                -0.000000  0.000000  0.000000  0.000000 -0.000000  0.000000 -0.000000 -0.000000  0.000000  0.000000
                                 0.000000 -0.000000

                                   1 2py     1 2py     1 2py     1 2py     1 2py     1 2py     1 2py     1 2py     1 4f1-    1 4f3- 
                                   1 4f1-    1 4f3-    1 4f1-    1 4f3-    1 4f1-    1 4f3-    1 6h1-    1 6h3-    1 6h5-    1 6h1- 
                                   1 6h3-    1 6h5- 

   1.3   2    -2.4023  -16.9228  0.999352  0.000220  0.000162  0.000046  0.000052 -0.000018  0.002944 -0.002330 -0.000000 -0.000000
                                 0.000000 -0.000000  0.000000 -0.000000 -0.000000 -0.000000  0.000000 -0.000000 -0.000000  0.000000
                                 0.000000 -0.000000

   2.3   0     0.0511   -2.6908  0.081007 -0.076837 -0.002808 -0.031118 -0.025090  1.033841 -0.678405  0.539805  0.000000 -0.000000
                                 0.000000  0.000000 -0.000000  0.000000  0.000000  0.000000  0.000000 -0.000000 -0.000000  0.000000
                                 0.000000  0.000000

   3.3   0     0.2835   -4.7335 -1.484398  1.439085 -0.224197  0.401479  0.285055 -0.604445  7.075639 -5.653247  0.000000 -0.000000
                                -0.000000 -0.000000  0.000000 -0.000000 -0.000000 -0.000000 -0.000000  0.000000  0.000000  0.000000
                                -0.000000 -0.000000

                                   1 3d2-    1 3d2-    1 3d2-    1 3d2-    1 3d2-    1 3d2-    1 3d2-    1 5g2-    1 5g4-    1 5g2- 
                                   1 5g4-    1 5g2-    1 5g4- 

   1.4   2    -0.3285  -11.1259  1.000048 -0.000032 -0.000017  0.000003 -0.000003 -0.000003 -0.000058 -0.000000 -0.000000  0.000000
                                 0.000000  0.000000  0.000000

   2.4   0     0.0743   -2.0362 -0.187854  0.009789  0.067352 -0.027579  1.035333 -0.001305  0.114226  0.000000  0.000000 -0.000000
                                -0.000000 -0.000000 -0.000000

   3.4   0     0.4517   -4.2498  1.163587  0.110916 -0.935944  0.370544 -0.437096  0.019940 -1.390296  0.000000 -0.000000  0.000000
                                 0.000000 -0.000000  0.000000

                                   1 2pz     1 2pz     1 2pz     1 2pz     1 2pz     1 2pz     1 2pz     1 2pz     1 4f0     1 4f2+ 
                                   1 4f0     1 4f2+    1 4f0     1 4f2+    1 4f0     1 4f2+    1 6h2+    1 6h4+    1 6h0     1 6h2+ 
                                   1 6h4+    1 6h0  

   1.5   2    -2.4023  -16.9228  0.999352  0.000220  0.000162  0.000046  0.000052 -0.000018  0.002944 -0.002330  0.000000 -0.000000
                                -0.000000  0.000000  0.000000 -0.000000 -0.000000  0.000000 -0.000000 -0.000000  0.000000 -0.000000
                                 0.000000  0.000000

   2.5   0     0.0511   -2.6908  0.081007 -0.076837 -0.002808 -0.031118 -0.025090  1.033841 -0.678405  0.539805 -0.000000 -0.000000
                                 0.000000 -0.000000 -0.000000 -0.000000  0.000000 -0.000000  0.000000  0.000000  0.000000 -0.000000
                                -0.000000 -0.000000

   3.5   0     0.2835   -4.7335 -1.484398  1.439085 -0.224197  0.401479  0.285055 -0.604445  7.075639 -5.653247  0.000000  0.000000
                                -0.000000  0.000000  0.000000 -0.000000  0.000000  0.000000 -0.000000 -0.000000 -0.000000  0.000000
                                 0.000000  0.000000

                                   1 3d1+    1 3d1+    1 3d1+    1 3d1+    1 3d1+    1 3d1+    1 3d1+    1 5g1+    1 5g3+    1 5g1+ 
                                   1 5g3+    1 5g1+    1 5g3+ 

   1.6   2    -0.3285  -11.1259  1.000048 -0.000032 -0.000017  0.000003 -0.000003 -0.000003 -0.000058 -0.000000  0.000000  0.000000
                                -0.000000  0.000000 -0.000000

   2.6   0     0.0743   -2.0362 -0.187854  0.009789  0.067352 -0.027579  1.035333 -0.001305  0.114226 -0.000000  0.000000  0.000000
                                -0.000000  0.000000 -0.000000

   3.6   0     0.4517   -4.2498  1.163587  0.110916 -0.935944  0.370544 -0.437096  0.019940 -1.390296  0.000000 -0.000000 -0.000000
                                 0.000000 -0.000000  0.000000

                                   1 3d1-    1 3d1-    1 3d1-    1 3d1-    1 3d1-    1 3d1-    1 3d1-    1 5g1-    1 5g3-    1 5g1- 
                                   1 5g3-    1 5g1-    1 5g3- 

   1.7   2    -0.3285  -11.1259  1.000048 -0.000032 -0.000017  0.000003 -0.000003 -0.000003 -0.000058 -0.000000 -0.000000  0.000000
                                 0.000000  0.000000  0.000000

   2.7   0     0.0743   -2.0362 -0.187854  0.009789  0.067352 -0.027579  1.035333 -0.001305  0.114226 -0.000000 -0.000000  0.000000
                                 0.000000  0.000000  0.000000

   3.7   0     0.4517   -4.2498  1.163587  0.110916 -0.935944  0.370544 -0.437096  0.019940 -1.390296  0.000000  0.000000 -0.000000
                                -0.000000 -0.000000 -0.000000

                                   1 4f2-    1 4f2-    1 4f2-    1 4f2-    1 6h4-    1 6h2-    1 6h4-    1 6h2- 

[...]
                                         1009     4302     2110     1010     4302     2111     1011     4302     2112     1012   
                                         BASIS     RHF      RHF     BASIS     RHF      RHF     BASIS     RHF      RHF     BASIS   
                                         4302     2113     1013     4302     2114     1014     4302     2115     1015     4302   
                                          RHF      RHF     BASIS     RHF      RHF     BASIS     RHF      RHF     BASIS     RHF  
                                         2116     1016     4302     2117     1017     4302     2118     1018     4302     2119   
                                          RHF     BASIS     RHF      RHF     BASIS     RHF      RHF     BASIS     RHF      RHF  
                                         1019     4302     2120     1020     4302     2121     1021     4302     2122     1022   
                                         BASIS     RHF      RHF     BASIS     RHF      RHF     BASIS     RHF      RHF     BASIS   
                                         4302     2123     1023     4302     2124     1024     4302     2125     1025     4302   
                                          RHF      RHF     BASIS     RHF      RHF     BASIS     RHF      RHF     BASIS     RHF  
                                         2126     1026     4302     2127     1027     4302     2128     1028     4302     2129   
                                          RHF     BASIS     RHF      RHF     BASIS     RHF      RHF     BASIS     RHF      RHF  
                                         1029     4202     2130   
                                         BASIS     RHF      RHF  

 PROGRAMS   *        TOTAL       RHF       RHF       INT        CI      DATA       RHF       RHF       INT        CI      DATA
 CPU TIMES  *      2168.89      0.27      0.07      2.00      0.45      0.00      0.09      0.27      1.84      0.64      0.00
 REAL TIME  *      3487.71 SEC
 DISK USED  *         2.82 GB      
 SF USED    *        13.92 MB      
 GA USED    *         0.00 MB       (max)       0.00 MB       (current)
 **********************************************************************************************************************************

 
 RECORD   4202.2 RENAMED TO   4302.2


 **********************************************************************************************************************************
 DATASETS  * FILE   NREC   LENGTH (MB)   RECORD NAMES
              1      19       20.06       500      610      700      900      950      970     1029      129      960     1100   
                                          VAR    BASINP    GEOM    SYMINP    ZMAT    AOBASIS   BASIS     P2S    ABASIS      S 
                                         1400     1410     1420     1200     1210     1080     1600     1650     1700   
                                           T        V       ECP      H0       H01     AOSYM     SMH    MOLCAS    OPER   

              2      93      158.72       200      700     1000      520     4302     2101     1001     4302     2102     1002   
                                        OPTIONS   GEOM     BASIS   MCVARS     RHF      RHF     BASIS     RHF      RHF     BASIS   
                                         4302     2103     1003     4302     2104     1004     4302     2105     1005     4302   
                                          RHF      RHF     BASIS     RHF      RHF     BASIS     RHF      RHF     BASIS     RHF  
                                         2106     1006     4302     2107     1007     4302     2108     1008     4302     2109   
                                          RHF     BASIS     RHF      RHF     BASIS     RHF      RHF     BASIS     RHF      RHF  
                                         1009     4302     2110     1010     4302     2111     1011     4302     2112     1012   
                                         BASIS     RHF      RHF     BASIS     RHF      RHF     BASIS     RHF      RHF     BASIS   
                                         4302     2113     1013     4302     2114     1014     4302     2115     1015     4302   
                                          RHF      RHF     BASIS     RHF      RHF     BASIS     RHF      RHF     BASIS     RHF  
                                         2116     1016     4302     2117     1017     4302     2118     1018     4302     2119   
                                          RHF     BASIS     RHF      RHF     BASIS     RHF      RHF     BASIS     RHF      RHF  
                                         1019     4302     2120     1020     4302     2121     1021     4302     2122     1022   
                                         BASIS     RHF      RHF     BASIS     RHF      RHF     BASIS     RHF      RHF     BASIS   
                                         4302     2123     1023     4302     2124     1024     4302     2125     1025     4302   
                                          RHF      RHF     BASIS     RHF      RHF     BASIS     RHF      RHF     BASIS     RHF  
                                         2126     1026     4302     2127     1027     4302     2128     1028     4302     2129   
                                          RHF     BASIS     RHF      RHF     BASIS     RHF      RHF     BASIS     RHF      RHF  
                                         1029     4302     2130   
                                         BASIS     RHF      RHF  

 PROGRAMS   *        TOTAL      DATA       RHF       RHF       INT        CI      DATA       RHF       RHF       INT        CI
 CPU TIMES  *      2168.90      0.00      0.27      0.07      2.00      0.45      0.00      0.09      0.27      1.84      0.64
 REAL TIME  *      3487.72 SEC
 DISK USED  *         2.82 GB      
 SF USED    *        13.92 MB      
 GA USED    *         0.00 MB       (max)       0.00 MB       (current)
 **********************************************************************************************************************************


 Current variables in basis input:

 Set= 1  S_PAR(1)            =       1.82279036
 Set= 1  S_PAR(2)            =       1.90830484
 Set= 1  P_PAR(1)            =       2.51905532
 Set= 1  P_PAR(2)            =       2.98331100
 Set= 1  D_PAR(1)            =       4.62719436
 Set= 1  D_PAR(2)            =       1.70953244
 Set= 1  F_PAR(1)            =      16.04250728
 Set= 1  G_PAR(1)            =       3.30724530
 Set= 1  H_PAR(1)            =       1.04542356

 PROGRAM * CI (Multireference internally contracted CI)     Authors: H.-J. Werner, P.J. Knowles, 1987


 Convergence thresholds:  THRVAR = 1.00D-08  THRDEN = 1.00D-06

 Number of optimized states:  1  Roots:   1
 Number of reference states:  1  Roots:   1

 Reference symmetry:                   1   Singlet 
 Number of electrons:                 18
 Maximum number of shells:             3
 Maximum number of spin couplings:     2

 Reference space:        1 conf        1 CSFs
 N elec internal:        1 conf        1 CSFs
 N-1 el internal:        9 conf        9 CSFs
 N-2 el internal:       45 conf       81 CSFs

 Number of electrons in valence space:                     18
 Maximum number of open shell orbitals in reference space:  0
 Maximum number of open shell orbitals in internal spaces:  4


 Number of closed-shell orbitals:   9 (   3   1   1   1   1   1   1   0 )
 Number of external orbitals:     135 (  28  21  21  12  21  12  12   8 )

 Molecular orbitals read from record     2130.2  Type=RHF/CANONICAL (state 1.1)

 Integral transformation finished. Total CPU:   0.03 sec, npass=  1  Memory used:   0.19 MW

 Number of p-space configurations:   1

 Reference wavefunction optimized for reference space (refopt=1)

 State     Reference Energy 
   1        -126.49839963

 Number of blocks in overlap matrix:    81   Smallest eigenvalue:  0.10D+01
 Number of N-2 electron functions:      81
 Number of N-1 electron functions:       9

 Number of internal configurations:                    1
 Number of singly external configurations:           183
 Number of doubly external configurations:         94320
 Total number of contracted configurations:        94504
 Total number of uncontracted configurations:      94504

 Diagonal Coupling coefficients finished.               Storage:    5821 words, CPU-Time:      0.00 seconds.
 Energy denominators for pairs finished in 1 passes.    Storage:   51414 words, CPU-time:      0.00 seconds.

  ITER. STATE  ROOT     SQ.NORM     CORR.ENERGY   TOTAL ENERGY   ENERGY CHANGE       DEN1      VAR(S)    VAR(P)      TIME
    1     1     1     1.00000000     0.00000000  -126.49839963    -0.00000000    -0.90879616  0.36D-10  0.18D+00     0.17
    2     1     1     1.10591235    -0.69421237  -127.19261200    -0.69421237    -0.02412076  0.32D-03  0.41D-02     0.20
    3     1     1     1.09673225    -0.71655737  -127.21495700    -0.02234500    -0.00033507  0.68D-04  0.39D-04     0.24
    4     1     1     1.09696619    -0.71684390  -127.21524353    -0.00028653    -0.00001729  0.17D-05  0.28D-05     0.28
    5     1     1     1.09702504    -0.71686133  -127.21526096    -0.00001743    -0.00000065  0.40D-07  0.13D-06     0.30
    6     1     1     1.09705730    -0.71686209  -127.21526172    -0.00000076    -0.00000004  0.18D-08  0.81D-08     0.34


 =====================================
 Analysis of CPU times by interactions
 =====================================

       I      S      P

 I   0.0%
 S   0.0%   2.9%
 P  11.8%   5.9%   8.8%

 Initialization:  44.1%
 Other:           26.5%

 Total CPU:        0.3 seconds
 =====================================



 Reference coefficients greater than 0.0500000
 =============================================
 222222222           0.9547405



 RESULTS FOR STATE 1.1
 =====================

 Coefficient of reference function:   C(0) = 0.95474050 (fixed)   0.95474050 (relaxed)

 Energy contributions of configuration classes

 CLASS          SQ.NORM        ECORR1        ECORR2
 +++++++++++++++++++++++++++++++++++++++++++++++++++
 Internals    0.00000000    0.00000000    0.00000000
 Singles      0.00015782    0.00000002   -0.00010184
 Pairs        0.09689948   -0.71686212   -0.71676026
 Total        1.09705730   -0.71686209   -0.71686209
 +++++++++++++++++++++++++++++++++++++++++++++++++++


 Reference energy                    -126.49839963
 Nuclear energy                         0.00000000
 Kinetic energy                        48.99865348
 One electron energy                 -227.08474735
 Two electron energy                   99.86948563
 Virial quotient                       -2.59630118
 Correlation energy                    -0.71686209
 !CI(SD) STATE 1.1 Energy            -127.215261720689

 Properties without orbital relaxation:

 !CI(SD) STATE 1.1 Dipole moment        0.00000000     0.00000000     0.00000000
 Dipole moment /Debye                   0.00000000     0.00000000     0.00000000

 Cluster corrected energies          -127.28483842 (Davidson, fixed reference)
 Cluster corrected energies          -127.28483842 (Davidson, relaxed reference)

 Cluster corrected energies          -127.28208492 (Pople, fixed reference)
 Cluster corrected energies          -127.28208492 (Pople, relaxed reference)



 **********************************************************************************************************************************
 DATASETS  * FILE   NREC   LENGTH (MB)   RECORD NAMES
              1      20       21.61       500      610      700      900      950      970     1029      129      960     1100   
                                          VAR    BASINP    GEOM    SYMINP    ZMAT    AOBASIS   BASIS     P2S    ABASIS      S 
                                         1400     1410     1420     1200     1210     1080     1600     1650     1700     1380   
                                           T        V       ECP      H0       H01     AOSYM     SMH    MOLCAS    OPER     JKOP   

              2      93      158.72       200      700     1000      520     4302     2101     1001     4302     2102     1002   
                                        OPTIONS   GEOM     BASIS   MCVARS     RHF      RHF     BASIS     RHF      RHF     BASIS   
                                         4302     2103     1003     4302     2104     1004     4302     2105     1005     4302   
                                          RHF      RHF     BASIS     RHF      RHF     BASIS     RHF      RHF     BASIS     RHF  
                                         2106     1006     4302     2107     1007     4302     2108     1008     4302     2109   
                                          RHF     BASIS     RHF      RHF     BASIS     RHF      RHF     BASIS     RHF      RHF  
                                         1009     4302     2110     1010     4302     2111     1011     4302     2112     1012   
                                         BASIS     RHF      RHF     BASIS     RHF      RHF     BASIS     RHF      RHF     BASIS   
                                         4302     2113     1013     4302     2114     1014     4302     2115     1015     4302   
                                          RHF      RHF     BASIS     RHF      RHF     BASIS     RHF      RHF     BASIS     RHF  
                                         2116     1016     4302     2117     1017     4302     2118     1018     4302     2119   
                                          RHF     BASIS     RHF      RHF     BASIS     RHF      RHF     BASIS     RHF      RHF  
                                         1019     4302     2120     1020     4302     2121     1021     4302     2122     1022   
                                         BASIS     RHF      RHF     BASIS     RHF      RHF     BASIS     RHF      RHF     BASIS   
                                         4302     2123     1023     4302     2124     1024     4302     2125     1025     4302   
                                          RHF      RHF     BASIS     RHF      RHF     BASIS     RHF      RHF     BASIS     RHF  
                                         2126     1026     4302     2127     1027     4302     2128     1028     4302     2129   
                                          RHF     BASIS     RHF      RHF     BASIS     RHF      RHF     BASIS     RHF      RHF  
                                         1029     4302     2130   
                                         BASIS     RHF      RHF  

 PROGRAMS   *        TOTAL        CI      DATA       RHF       RHF       INT        CI      DATA       RHF       RHF       INT
 CPU TIMES  *      2169.28      0.39      0.00      0.27      0.07      2.00      0.45      0.00      0.09      0.27      1.84
 REAL TIME  *      3489.17 SEC
 DISK USED  *         2.82 GB      
 SF USED    *        13.92 MB      
 GA USED    *         0.00 MB       (max)       0.00 MB       (current)
 **********************************************************************************************************************************
 SETTING EVAL           =      -127.21526172  AU                              

 BFGS final minimum    =      -127.215261721       maximum gradient =            0.30E-04

           variable                 value           gradient
 BFGS       S_PAR(1)                1.822790       -0.0000131
 BFGS       S_PAR(2)                1.908305        0.0000108
 BFGS       P_PAR(1)                2.519055       -0.0000202
 BFGS       P_PAR(2)                2.983311        0.0000105
 BFGS       D_PAR(1)                4.627194       -0.0000092
 BFGS       D_PAR(2)                1.709532       -0.0000199
 BFGS       F_PAR(1)               16.042507        0.0000296
 BFGS       G_PAR(1)                3.307245        0.0000091
 BFGS       H_PAR(1)                1.045424       -0.0000288


 **********************************************************************************************************************************
 DATASETS  * FILE   NREC   LENGTH (MB)   RECORD NAMES
              1      20       21.61       500      610      700      900      950      970     1029      129      960     1100   
                                          VAR    BASINP    GEOM    SYMINP    ZMAT    AOBASIS   BASIS     P2S    ABASIS      S 
                                         1400     1410     1420     1200     1210     1080     1600     1650     1700     1380   
                                           T        V       ECP      H0       H01     AOSYM     SMH    MOLCAS    OPER     JKOP   

              2      93      158.72       200      700     1000      520     4302     2101     1001     4302     2102     1002   
                                        OPTIONS   GEOM     BASIS   MCVARS     RHF      RHF     BASIS     RHF      RHF     BASIS   
                                         4302     2103     1003     4302     2104     1004     4302     2105     1005     4302   
                                          RHF      RHF     BASIS     RHF      RHF     BASIS     RHF      RHF     BASIS     RHF  
                                         2106     1006     4302     2107     1007     4302     2108     1008     4302     2109   
                                          RHF     BASIS     RHF      RHF     BASIS     RHF      RHF     BASIS     RHF      RHF  
                                         1009     4302     2110     1010     4302     2111     1011     4302     2112     1012   
                                         BASIS     RHF      RHF     BASIS     RHF      RHF     BASIS     RHF      RHF     BASIS   
                                         4302     2113     1013     4302     2114     1014     4302     2115     1015     4302   
                                          RHF      RHF     BASIS     RHF      RHF     BASIS     RHF      RHF     BASIS     RHF  
                                         2116     1016     4302     2117     1017     4302     2118     1018     4302     2119   
                                          RHF     BASIS     RHF      RHF     BASIS     RHF      RHF     BASIS     RHF      RHF  
                                         1019     4302     2120     1020     4302     2121     1021     4302     2122     1022   
                                         BASIS     RHF      RHF     BASIS     RHF      RHF     BASIS     RHF      RHF     BASIS   
                                         4302     2123     1023     4302     2124     1024     4302     2125     1025     4302   
                                          RHF      RHF     BASIS     RHF      RHF     BASIS     RHF      RHF     BASIS     RHF  
                                         2126     1026     4302     2127     1027     4302     2128     1028     4302     2129   
                                          RHF     BASIS     RHF      RHF     BASIS     RHF      RHF     BASIS     RHF      RHF  
                                         1029     4302     2130   
                                         BASIS     RHF      RHF  

 PROGRAMS   *        TOTAL  MINIMIZE      DATA       RHF       RHF       INT        CI      DATA       RHF       RHF       INT
 CPU TIMES  *      2169.28      0.39      0.00      0.27      0.07      2.00      0.45      0.00      0.09      0.27      1.84
 REAL TIME  *      3489.18 SEC
 DISK USED  *         2.82 GB      
 SF USED    *        13.92 MB      
 GA USED    *         0.00 MB       (max)       0.00 MB       (current)
 **********************************************************************************************************************************

 MINIMIZE/USERDEF energy=   -127.215261720689

        CI              RHF-SCF         RHF-SCF         CI              RHF-SCF         RHF-SCF         CI              RHF-SCF 
   -127.21526172   -126.49839963   -126.49839963   -127.21526171   -126.49839963   -126.49839963   -127.21526173   -126.49839963
 **********************************************************************************************************************************
 Molpro calculation terminated
 Variable memory released
