<?xml version="1.0"?>
<molpro xmlns="http://www.molpro.net/schema/molpro-output"
  xmlns:xsd="http://www.w3.org/1999/XMLSchema"
  xmlns:cml="http://www.xml-cml.org/schema"
  xmlns:stm="http://www.xml-cml.org/schema"
  xmlns:xhtml="http://www.w3.org/1999/xhtml">
 <!--

 Nodes     nprocs
 nid13020    15
 Number of processes for MPI-2 version of Molpro:   nprocs(total)=   16   nprocs(compute)=   15   nprocs(helper)=    1

 Using customized tuning parameters: mindgm=7; mindgv=16; mindgc=1; mindgr=1; noblas=0; minvec=7
 default implementation of scratch files=sf

 --><job>
  <!--

 Variables initialized (889), CPU time= 0.17 sec
 Commands  initialized (702), CPU time= 0.01 sec, 572 directives.
 Default parameters read. Elapsed time= 0.19 sec

 Checking input...
 Passed
1


                                         ***  PROGRAM SYSTEM MOLPRO  ***
                                       Copyright, TTI GmbH Stuttgart, 2015
                                    Version 2015.1 linked Dec 29 2018 15:55:43


 **********************************************************************************************************************************
 LABEL *   Pd
  64 bit mpp version                                                                     DATE: 22-Feb-22          TIME: 07:55:19
 **********************************************************************************************************************************

 SHA1:             19cd028119e0e09f93f0674bd8af7968d9b3eff6
 **********************************************************************************************************************************
  -->
  <!--

 THRESHOLDS:

 ZERO    =  1.00D-12  ONEINT  =  1.00D-12  TWOINT  =  1.00D-12  PREFAC  =  1.00D-14  LOCALI  =  1.00D-09  EORDER  =  1.00D-04
 ENERGY  =  0.00D+00  ETEST   =  0.00D+00  EDENS   =  0.00D+00  THRDEDEF=  1.00D-06  GRADIENT=  1.00D-02  STEP    =  1.00D-03
 ORBITAL =  1.00D-05  CIVEC   =  1.00D-05  COEFF   =  1.00D-04  PRINTCI =  5.00D-02  PUNCHCI =  9.90D+01  OPTGRAD =  3.00D-04
 OPTENERG=  1.00D-06  OPTSTEP =  3.00D-04  THRGRAD =  1.00D-10  COMPRESS=  1.00D-11  VARMIN  =  1.00D-07  VARMAX  =  1.00D-03
 THRDOUB =  0.00D+00  THRDIV  =  1.00D-05  THRRED  =  1.00D-07  THRPSP  =  1.00D+00  THRDC   =  1.00D-10  THRCS   =  1.00D-10
 THRNRM  =  1.00D-08  THREQ   =  0.00D+00  THRDE   =  1.00D+00  THRREF  =  1.00D-05  SPARFAC =  1.00D+00  THRDLP  =  1.00D-07
 THRDIA  =  1.00D-10  THRDLS  =  1.00D-07  THRGPS  =  0.00D+00  THRKEX  =  0.00D+00  THRDIS  =  2.00D-01  THRVAR  =  1.00D-10
 THRLOC  =  1.00D-06  THRGAP  =  1.00D-06  THRLOCT = -1.00D+00  THRGAPT = -1.00D+00  THRORB  =  1.00D-06  THRMLTP =  0.00D+00
 THRCPQCI=  1.00D-10  KEXTA   =  0.00D+00  THRCOARS=  0.00D+00  SYMTOL  =  1.00D-06  GRADTOL =  1.00D-06  THROVL  =  1.00D-08
 THRORTH =  1.00D-08  GRID    =  1.00D-06  GRIDMAX =  1.00D-03  DTMAX   =  0.00D+00  THROCCDE=  1.00D-01  THROCCDE=  1.00D-01



 ZUNIT=ANG


Geometry recognized as XYZ

 SETTING S_PAR(1)       =         2.58340000
 SETTING S_PAR(2)       =         1.61770000
 SETTING P_PAR(1)       =         3.24600000
 SETTING P_PAR(2)       =         1.81180000
 SETTING D_PAR(1)       =         4.40810000
 SETTING D_PAR(2)       =         1.70260000
 SETTING F_PAR          =         6.15830000
 SETTING G_PAR          =         3.53540000
 SETTING H_PAR          =         3.36080000

 Variable memory set to  512000000 words,  buffer space   230000 words

  --><jobstep command="MINIMIZE" commandset="MINIMIZE">
   <!--


 PROGRAM * MINIMIZE (General minimization)     Authors: H.-J. Werner, P.J. Knowles, K.A. Peterson

 Minimize EVAL with respect to:        S_PAR(1)  S_PAR(2)  P_PAR(1)  P_PAR(2)  D_PAR(1)
                                       D_PAR(2)  F_PAR(1)  G_PAR(1)  H_PAR(1)
 Method BFGS will be used
 Variables are optimized in the space of (x/x0)


 Minimization using procedure=OPT_BASIS

 Running procedure=OPT_BASIS
 SETTING BASIS          =    USERDEF
   --><jobstep command="RHF-SCF" commandset="SCFPRO">
    <!--


 Current variables in basis input:

 Set= 1  S_PAR(1)            =       2.58340000
 Set= 1  S_PAR(2)            =       1.61770000
 Set= 1  P_PAR(1)            =       3.24600000
 Set= 1  P_PAR(2)            =       1.81180000
 Set= 1  D_PAR(1)            =       4.40810000
 Set= 1  D_PAR(2)            =       1.70260000
 Set= 1  F_PAR(1)            =       6.15830000
 Set= 1  G_PAR(1)            =       3.53540000
 Set= 1  H_PAR(1)            =       3.36080000

 Recomputing integrals since basis changed


 Using spherical harmonics



 PROGRAM * SEWARD (Integral evaluation for generally contracted gaussian basis sets)     Author: Roland Lindh, 1990

 Geometry written to block  1 of record 700

 Orientation using atomic masses
 Molecule type: Atom
 Symmetry elements: X,Y,Z
 Rotational constants:       0.0000000      0.0000000      0.0000000 GHz  (calculated with average atomic masses)

 Point group  D2h


    --><cml:molecule>
     <cml:symmetry pointGroup="D2h"/>
     <cml:atomArray>
      <cml:atom id="a1" elementType="Pd" x3="0.0" y3="0.0" z3="0.0"/>
     </cml:atomArray>
     <cml:bondArray>
     </cml:bondArray>
    </cml:molecule><!--

 ATOMIC COORDINATES

 NR  ATOM    CHARGE       X              Y              Z

   1  PD     18.00    0.000000000    0.000000000    0.000000000


          PD  CORE POTENTIAL

          f POTENTIAL

 POWERS             1              3              2              2
 EXPONENTIALS   15.99766       15.96401       16.12888       9.592539
 COEFFICIENTS   18.00000       287.9579      -176.3826      -44.25362

          s - f POTENTIAL

 POWERS             2              2              2
 EXPONENTIALS   12.45165       6.301508       9.656958
 COEFFICIENTS   222.0049       55.83859       4.624354

          p - f POTENTIAL

 POWERS             2              2              2
 EXPONENTIALS   12.37601       5.706187       9.850179
 COEFFICIENTS   166.6450       42.68117       28.72135

          d - f POTENTIAL

 POWERS             2              2              2
 EXPONENTIALS   7.923467       3.358692       9.195344
 COEFFICIENTS   53.57659       4.674921       57.97681


 BASIS DATA

   Nr Sym  Nuc  Type         Exponents   Contraction coefficients

    1.1 Ag    1  1s         226.982057    -0.000123    0.000117   -0.000063   -0.001908    0.008138    0.000000
    2.1 Ag                  107.971612     0.000586   -0.000580    0.000309    0.009521   -0.040699    0.000000
    3.1 Ag                   51.360311    -0.001037    0.001695   -0.000590   -0.029954    0.127068    0.000000
    4.1 Ag                   24.431251    -0.013924   -0.002148   -0.007717    0.094695   -0.363306    0.000000
    5.1 Ag                   11.621542     0.200098   -0.019262    0.119010   -0.416458    1.256213    0.000000
    6.1 Ag                    5.528176    -0.676779    0.084919   -0.425622    1.261804   -4.003174    0.000000
                              2.629662     0.045446    0.022876   -0.051799   -0.579822    6.713429    0.000000
                              1.250887     0.857855   -0.244520    1.109581   -3.177434   -3.944306    0.000000
                              0.595026     0.366386    0.091710    0.219221    4.036898   -2.327527    0.000000
                              0.283044     0.052708   -0.417493   -0.869582   -0.556360    5.490862    0.000000
                              0.134639    -0.007355    0.856225   -0.507150   -0.841919   -3.312612    0.000000
                              0.064046     0.004478   -1.233857   -0.060316   -0.212786    0.567986    0.000000
                              0.030465    -0.001187    1.683095    0.000652    0.021290   -0.216586    1.000000
    7.1 Ag    1  1s           2.583400     1.000000
    8.1 Ag    1  1s           1.617700     1.000000
    9.1 Ag    1  3d0         24.858557     0.002857
                             13.807567     0.008324
                              7.669347    -0.032165
                              4.259902     0.041986
                              2.366142     0.187147
                              1.314262     0.274091
                              0.730001     0.274162
                              0.405475     0.223394
                              0.225219     0.156376
                              0.125097     0.088573
                              0.069485     0.033732
                              0.038595     0.005858
                              0.021437     0.000243
   10.1 Ag    1  3d2+        24.858557     0.002857
                             13.807567     0.008324
                              7.669347    -0.032165
                              4.259902     0.041986
                              2.366142     0.187147
                              1.314262     0.274091
                              0.730001     0.274162
                              0.405475     0.223394
                              0.225219     0.156376
                              0.125097     0.088573
                              0.069485     0.033732
                              0.038595     0.005858
                              0.021437     0.000243
   11.1 Ag    1  3d0         24.858557    -0.004007
                             13.807567    -0.009816
                              7.669347     0.040598
                              4.259902    -0.059887
                              2.366142    -0.292809
                              1.314262    -0.381848
                              0.730001    -0.112906
                              0.405475     0.234947
                              0.225219     0.363251
                              0.125097     0.275550
                              0.069485     0.128792
                              0.038595     0.028454
                              0.021437     0.001243
   12.1 Ag    1  3d2+        24.858557    -0.004007
                             13.807567    -0.009816
                              7.669347     0.040598
                              4.259902    -0.059887
                              2.366142    -0.292809
                              1.314262    -0.381848
                              0.730001    -0.112906
                              0.405475     0.234947
                              0.225219     0.363251
                              0.125097     0.275550
                              0.069485     0.128792
                              0.038595     0.028454
                              0.021437     0.001243
   13.1 Ag    1  3d0         24.858557    -0.006065
                             13.807567    -0.014128
                              7.669347     0.063530
                              4.259902    -0.089104
                              2.366142    -0.687019
                              1.314262    -0.222398
                              0.730001     0.792038
                              0.405475     0.461827
                              0.225219    -0.210862
                              0.125097    -0.397527
                              0.069485    -0.220040
                              0.038595    -0.055864
                              0.021437    -0.001842
   14.1 Ag    1  3d2+        24.858557    -0.006065
                             13.807567    -0.014128
                              7.669347     0.063530
                              4.259902    -0.089104
                              2.366142    -0.687019
                              1.314262    -0.222398
                              0.730001     0.792038
                              0.405475     0.461827
                              0.225219    -0.210862
                              0.125097    -0.397527
                              0.069485    -0.220040
                              0.038595    -0.055864
                              0.021437    -0.001842
   15.1 Ag    1  3d0         24.858557    -0.005701
                             13.807567    -0.041076
                              7.669347     0.177748
                              4.259902    -0.401551
                              2.366142    -1.233635
                              1.314262     1.629425
                              0.730001     0.479913
                              0.405475    -1.170492
                              0.225219    -0.247151
                              0.125097     0.369970
                              0.069485     0.335028
                              0.038595     0.079693
                              0.021437     0.005779
   16.1 Ag    1  3d2+        24.858557    -0.005701
                             13.807567    -0.041076
                              7.669347     0.177748
                              4.259902    -0.401551
                              2.366142    -1.233635
                              1.314262     1.629425
                              0.730001     0.479913
                              0.405475    -1.170492
                              0.225219    -0.247151
                              0.125097     0.369970
                              0.069485     0.335028
                              0.038595     0.079693
                              0.021437     0.005779
   17.1 Ag    1  3d0         24.858557     0.000000
                             13.807567     0.000000
                              7.669347     0.000000
                              4.259902     0.000000
                              2.366142     0.000000
                              1.314262     0.000000
                              0.730001     0.000000
                              0.405475     0.000000
                              0.225219     0.000000
                              0.125097     0.000000
                              0.069485     0.000000
                              0.038595     0.000000
                              0.021437     1.000000
   18.1 Ag    1  3d2+        24.858557     0.000000
                             13.807567     0.000000
                              7.669347     0.000000
                              4.259902     0.000000
                              2.366142     0.000000
                              1.314262     0.000000
                              0.730001     0.000000
                              0.405475     0.000000
                              0.225219     0.000000
                              0.125097     0.000000
                              0.069485     0.000000
                              0.038595     0.000000
                              0.021437     1.000000
   19.1 Ag    1  3d0          4.408100     1.000000
   20.1 Ag    1  3d2+         4.408100     1.000000
   21.1 Ag    1  3d0          1.702600     1.000000
   22.1 Ag    1  3d2+         1.702600     1.000000
   23.1 Ag    1  5g0          2.752407     1.000000
   24.1 Ag    1  5g4+         2.752407     1.000000
   25.1 Ag    1  5g2+         2.752407     1.000000
   26.1 Ag    1  5g0          1.007272     1.000000
   27.1 Ag    1  5g4+         1.007272     1.000000
   28.1 Ag    1  5g2+         1.007272     1.000000
   29.1 Ag    1  5g0          3.535400     1.000000
   30.1 Ag    1  5g4+         3.535400     1.000000
   31.1 Ag    1  5g2+         3.535400     1.000000
    1.2 B3u   1  2px         49.528556    -0.000125    0.000176   -0.000014   -0.012211    0.053745    0.000000
    2.2 B3u                  26.116743    -0.001273    0.000339    0.002075    0.063332   -0.275923    0.000000
    3.2 B3u                  13.771535     0.038171   -0.025564   -0.041847   -0.251945    0.979303    0.000000
    4.2 B3u                   7.261824    -0.174047    0.127568    0.173144    0.769673   -2.971680    0.000000
    5.2 B3u                   3.829209    -0.041692    0.040787    0.307947   -0.397351    5.445539    0.000000
    6.2 B3u                   2.019168     0.413749   -0.439452   -1.596670   -3.018892   -3.694725    0.000000
                              1.064721     0.450821   -0.442802    0.190811    4.961124   -1.823365    0.000000
                              0.561434     0.251837    0.193319    1.623239   -2.316344    6.249021    0.000000
                              0.296048     0.051165    0.566241   -0.253493   -0.828485   -6.109773    0.000000
                              0.156108     0.011161    0.374898   -0.637836    0.593295    2.758959    0.000000
                              0.082317    -0.002018    0.092881   -0.260561    0.473889   -0.636491    0.000000
                              0.043406     0.001463    0.007271   -0.000879   -0.016521    0.587537    0.000000
                              0.022888    -0.000389    0.000254   -0.005207    0.013812   -0.143796    1.000000
    7.2 B3u   1  2px          3.246000     1.000000
    8.2 B3u   1  2px          1.811800     1.000000
    9.2 B3u   1  4f1+         4.184954     1.000000
   10.2 B3u   1  4f3+         4.184954     1.000000
   11.2 B3u   1  4f1+         1.438597     1.000000
   12.2 B3u   1  4f3+         1.438597     1.000000
   13.2 B3u   1  4f1+         0.494524     1.000000
   14.2 B3u   1  4f3+         0.494524     1.000000
   15.2 B3u   1  4f1+         6.158300     1.000000
   16.2 B3u   1  4f3+         6.158300     1.000000
   17.2 B3u   1  6h1+         2.219273     1.000000
   18.2 B3u   1  6h3+         2.219273     1.000000
   19.2 B3u   1  6h5+         2.219273     1.000000
   20.2 B3u   1  6h1+         3.360800     1.000000
   21.2 B3u   1  6h3+         3.360800     1.000000
   22.2 B3u   1  6h5+         3.360800     1.000000
    1.3 B2u   1  2py         49.528556    -0.000125    0.000176   -0.000014   -0.012211    0.053745    0.000000
    2.3 B2u                  26.116743    -0.001273    0.000339    0.002075    0.063332   -0.275923    0.000000
    3.3 B2u                  13.771535     0.038171   -0.025564   -0.041847   -0.251945    0.979303    0.000000
    4.3 B2u                   7.261824    -0.174047    0.127568    0.173144    0.769673   -2.971680    0.000000
    5.3 B2u                   3.829209    -0.041692    0.040787    0.307947   -0.397351    5.445539    0.000000
    6.3 B2u                   2.019168     0.413749   -0.439452   -1.596670   -3.018892   -3.694725    0.000000
                              1.064721     0.450821   -0.442802    0.190811    4.961124   -1.823365    0.000000
                              0.561434     0.251837    0.193319    1.623239   -2.316344    6.249021    0.000000
                              0.296048     0.051165    0.566241   -0.253493   -0.828485   -6.109773    0.000000
                              0.156108     0.011161    0.374898   -0.637836    0.593295    2.758959    0.000000
                              0.082317    -0.002018    0.092881   -0.260561    0.473889   -0.636491    0.000000
                              0.043406     0.001463    0.007271   -0.000879   -0.016521    0.587537    0.000000
                              0.022888    -0.000389    0.000254   -0.005207    0.013812   -0.143796    1.000000
    7.3 B2u   1  2py          3.246000     1.000000
    8.3 B2u   1  2py          1.811800     1.000000
    9.3 B2u   1  4f1-         4.184954     1.000000
   10.3 B2u   1  4f3-         4.184954     1.000000
   11.3 B2u   1  4f1-         1.438597     1.000000
   12.3 B2u   1  4f3-         1.438597     1.000000
   13.3 B2u   1  4f1-         0.494524     1.000000
   14.3 B2u   1  4f3-         0.494524     1.000000
   15.3 B2u   1  4f1-         6.158300     1.000000
   16.3 B2u   1  4f3-         6.158300     1.000000
   17.3 B2u   1  6h1-         2.219273     1.000000
   18.3 B2u   1  6h3-         2.219273     1.000000
   19.3 B2u   1  6h5-         2.219273     1.000000
   20.3 B2u   1  6h1-         3.360800     1.000000
   21.3 B2u   1  6h3-         3.360800     1.000000
   22.3 B2u   1  6h5-         3.360800     1.000000
    1.4 B1g   1  3d2-        24.858557     0.002857   -0.004007   -0.006065   -0.005701    0.000000
    2.4 B1g                  13.807567     0.008324   -0.009816   -0.014128   -0.041076    0.000000
    3.4 B1g                   7.669347    -0.032165    0.040598    0.063530    0.177748    0.000000
    4.4 B1g                   4.259902     0.041986   -0.059887   -0.089104   -0.401551    0.000000
    5.4 B1g                   2.366142     0.187147   -0.292809   -0.687019   -1.233635    0.000000
                              1.314262     0.274091   -0.381848   -0.222398    1.629425    0.000000
                              0.730001     0.274162   -0.112906    0.792038    0.479913    0.000000
                              0.405475     0.223394    0.234947    0.461827   -1.170492    0.000000
                              0.225219     0.156376    0.363251   -0.210862   -0.247151    0.000000
                              0.125097     0.088573    0.275550   -0.397527    0.369970    0.000000
                              0.069485     0.033732    0.128792   -0.220040    0.335028    0.000000
                              0.038595     0.005858    0.028454   -0.055864    0.079693    0.000000
                              0.021437     0.000243    0.001243   -0.001842    0.005779    1.000000
    6.4 B1g   1  3d2-         4.408100     1.000000
    7.4 B1g   1  3d2-         1.702600     1.000000
    8.4 B1g   1  5g2-         2.752407     1.000000
    9.4 B1g   1  5g4-         2.752407     1.000000
   10.4 B1g   1  5g2-         1.007272     1.000000
   11.4 B1g   1  5g4-         1.007272     1.000000
   12.4 B1g   1  5g2-         3.535400     1.000000
   13.4 B1g   1  5g4-         3.535400     1.000000
    1.5 B1u   1  2pz         49.528556    -0.000125    0.000176   -0.000014   -0.012211    0.053745    0.000000
    2.5 B1u                  26.116743    -0.001273    0.000339    0.002075    0.063332   -0.275923    0.000000
    3.5 B1u                  13.771535     0.038171   -0.025564   -0.041847   -0.251945    0.979303    0.000000
    4.5 B1u                   7.261824    -0.174047    0.127568    0.173144    0.769673   -2.971680    0.000000
    5.5 B1u                   3.829209    -0.041692    0.040787    0.307947   -0.397351    5.445539    0.000000
    6.5 B1u                   2.019168     0.413749   -0.439452   -1.596670   -3.018892   -3.694725    0.000000
                              1.064721     0.450821   -0.442802    0.190811    4.961124   -1.823365    0.000000
                              0.561434     0.251837    0.193319    1.623239   -2.316344    6.249021    0.000000
                              0.296048     0.051165    0.566241   -0.253493   -0.828485   -6.109773    0.000000
                              0.156108     0.011161    0.374898   -0.637836    0.593295    2.758959    0.000000
                              0.082317    -0.002018    0.092881   -0.260561    0.473889   -0.636491    0.000000
                              0.043406     0.001463    0.007271   -0.000879   -0.016521    0.587537    0.000000
                              0.022888    -0.000389    0.000254   -0.005207    0.013812   -0.143796    1.000000
    7.5 B1u   1  2pz          3.246000     1.000000
    8.5 B1u   1  2pz          1.811800     1.000000
    9.5 B1u   1  4f0          4.184954     1.000000
   10.5 B1u   1  4f2+         4.184954     1.000000
   11.5 B1u   1  4f0          1.438597     1.000000
   12.5 B1u   1  4f2+         1.438597     1.000000
   13.5 B1u   1  4f0          0.494524     1.000000
   14.5 B1u   1  4f2+         0.494524     1.000000
   15.5 B1u   1  4f0          6.158300     1.000000
   16.5 B1u   1  4f2+         6.158300     1.000000
   17.5 B1u   1  6h2+         2.219273     1.000000
   18.5 B1u   1  6h4+         2.219273     1.000000
   19.5 B1u   1  6h0          2.219273     1.000000
   20.5 B1u   1  6h2+         3.360800     1.000000
   21.5 B1u   1  6h4+         3.360800     1.000000
   22.5 B1u   1  6h0          3.360800     1.000000
    1.6 B2g   1  3d1+        24.858557     0.002857   -0.004007   -0.006065   -0.005701    0.000000
    2.6 B2g                  13.807567     0.008324   -0.009816   -0.014128   -0.041076    0.000000
    3.6 B2g                   7.669347    -0.032165    0.040598    0.063530    0.177748    0.000000
    4.6 B2g                   4.259902     0.041986   -0.059887   -0.089104   -0.401551    0.000000
    5.6 B2g                   2.366142     0.187147   -0.292809   -0.687019   -1.233635    0.000000
                              1.314262     0.274091   -0.381848   -0.222398    1.629425    0.000000
                              0.730001     0.274162   -0.112906    0.792038    0.479913    0.000000
                              0.405475     0.223394    0.234947    0.461827   -1.170492    0.000000
                              0.225219     0.156376    0.363251   -0.210862   -0.247151    0.000000
                              0.125097     0.088573    0.275550   -0.397527    0.369970    0.000000
                              0.069485     0.033732    0.128792   -0.220040    0.335028    0.000000
                              0.038595     0.005858    0.028454   -0.055864    0.079693    0.000000
                              0.021437     0.000243    0.001243   -0.001842    0.005779    1.000000
    6.6 B2g   1  3d1+         4.408100     1.000000
    7.6 B2g   1  3d1+         1.702600     1.000000
    8.6 B2g   1  5g1+         2.752407     1.000000
    9.6 B2g   1  5g3+         2.752407     1.000000
   10.6 B2g   1  5g1+         1.007272     1.000000
   11.6 B2g   1  5g3+         1.007272     1.000000
   12.6 B2g   1  5g1+         3.535400     1.000000
   13.6 B2g   1  5g3+         3.535400     1.000000
    1.7 B3g   1  3d1-        24.858557     0.002857   -0.004007   -0.006065   -0.005701    0.000000
    2.7 B3g                  13.807567     0.008324   -0.009816   -0.014128   -0.041076    0.000000
    3.7 B3g                   7.669347    -0.032165    0.040598    0.063530    0.177748    0.000000
    4.7 B3g                   4.259902     0.041986   -0.059887   -0.089104   -0.401551    0.000000
    5.7 B3g                   2.366142     0.187147   -0.292809   -0.687019   -1.233635    0.000000
                              1.314262     0.274091   -0.381848   -0.222398    1.629425    0.000000
                              0.730001     0.274162   -0.112906    0.792038    0.479913    0.000000
                              0.405475     0.223394    0.234947    0.461827   -1.170492    0.000000
                              0.225219     0.156376    0.363251   -0.210862   -0.247151    0.000000
                              0.125097     0.088573    0.275550   -0.397527    0.369970    0.000000
                              0.069485     0.033732    0.128792   -0.220040    0.335028    0.000000
                              0.038595     0.005858    0.028454   -0.055864    0.079693    0.000000
                              0.021437     0.000243    0.001243   -0.001842    0.005779    1.000000
    6.7 B3g   1  3d1-         4.408100     1.000000
    7.7 B3g   1  3d1-         1.702600     1.000000
    8.7 B3g   1  5g1-         2.752407     1.000000
    9.7 B3g   1  5g3-         2.752407     1.000000
   10.7 B3g   1  5g1-         1.007272     1.000000
   11.7 B3g   1  5g3-         1.007272     1.000000
   12.7 B3g   1  5g1-         3.535400     1.000000
   13.7 B3g   1  5g3-         3.535400     1.000000
    1.8 Au    1  4f2-         4.184954     1.000000
    2.8 Au    1  4f2-         1.438597     1.000000
    3.8 Au    1  4f2-         0.494524     1.000000
    4.8 Au    1  4f2-         6.158300     1.000000
    5.8 Au    1  6h4-         2.219273     1.000000
    6.8 Au    1  6h2-         2.219273     1.000000
    7.8 Au    1  6h4-         3.360800     1.000000
    8.8 Au    1  6h2-         3.360800     1.000000

 NUCLEAR CHARGE:                   18
 NUMBER OF PRIMITIVE AOS:         277
 NUMBER OF SYMMETRY AOS:          212
 NUMBER OF CONTRACTIONS:          144   (  31Ag  +  22B3u +  22B2u +  13B1g +  22B1u +  13B2g +  13B3g +   8Au  )
 NUMBER OF CORE ORBITALS:           4   (   1Ag  +   1B3u +   1B2u +   0B1g +   1B1u +   0B2g +   0B3g +   0Au  )
 NUMBER OF VALENCE ORBITALS:        6   (   3Ag  +   0B3u +   0B2u +   1B1g +   0B1u +   1B2g +   1B3g +   0Au  )


 NUCLEAR REPULSION ENERGY    0.00000000

 EXTRA SYMMETRY OF AOS IN SYMMETRY 1:   1 1 1 1 1 1 1 1 2 3   2 3 2 3 2 3 2 3 2 3   2 3 4 5 6 4 5 6 4 5   6
 EXTRA SYMMETRY OF AOS IN SYMMETRY 2:   1 1 1 1 1 1 1 1 2 3   2 3 2 3 2 3 4 5 6 4   5 6
 EXTRA SYMMETRY OF AOS IN SYMMETRY 3:   1 1 1 1 1 1 1 1 2 3   2 3 2 3 2 3 4 5 6 4   5 6
 EXTRA SYMMETRY OF AOS IN SYMMETRY 4:   1 1 1 1 1 1 1 2 3 2   3 2 3
 EXTRA SYMMETRY OF AOS IN SYMMETRY 5:   1 1 1 1 1 1 1 1 2 3   2 3 2 3 2 3 4 5 6 4   5 6
 EXTRA SYMMETRY OF AOS IN SYMMETRY 6:   1 1 1 1 1 1 1 2 3 2   3 2 3
 EXTRA SYMMETRY OF AOS IN SYMMETRY 7:   1 1 1 1 1 1 1 2 3 2   3 2 3
 EXTRA SYMMETRY OF AOS IN SYMMETRY 8:   1 1 1 1 2 3 2 3

 Eigenvalues of metric

         1 0.121E-03 0.823E-03 0.823E-03 0.654E-02 0.271E-01 0.271E-01 0.271E-01 0.104E+00
         2 0.145E-03 0.457E-01 0.457E-01 0.659E-01 0.130E+00 0.130E+00 0.130E+00 0.387E+00
         3 0.145E-03 0.457E-01 0.457E-01 0.659E-01 0.130E+00 0.130E+00 0.130E+00 0.387E+00
         4 0.823E-03 0.271E-01 0.271E-01 0.104E+00 0.529E+00 0.711E+00 0.711E+00 0.998E+00
         5 0.145E-03 0.457E-01 0.457E-01 0.659E-01 0.130E+00 0.130E+00 0.130E+00 0.387E+00
         6 0.823E-03 0.271E-01 0.271E-01 0.104E+00 0.529E+00 0.711E+00 0.711E+00 0.998E+00
         7 0.823E-03 0.271E-01 0.271E-01 0.104E+00 0.529E+00 0.711E+00 0.711E+00 0.998E+00
         8 0.457E-01 0.130E+00 0.130E+00 0.387E+00 0.123E+01 0.187E+01 0.187E+01 0.233E+01


 Contracted 2-electron integrals neglected if value below      1.0D-12
 AO integral compression algorithm  1   Integral accuracy      1.0D-12

     55.312 MB (compressed) written to integral file ( 60.2%)

     Node minimum: 1.573 MB, node maximum: 7.864 MB


 NUMBER OF SORTED TWO-ELECTRON INTEGRALS:     452710.     BUFFER LENGTH:  32768
 NUMBER OF SEGMENTS:   1  SEGMENT LENGTH:     452710      RECORD LENGTH: 524288

 Memory used in sort:       1.01 MW

 SORT1 READ    11599838. AND WROTE      312801. INTEGRALS IN      1 RECORDS. CPU TIME:     0.33 SEC, REAL TIME:     0.40 SEC
 SORT2 READ     4948094. AND WROTE     7063297. INTEGRALS IN    210 RECORDS. CPU TIME:     0.02 SEC, REAL TIME:     0.07 SEC

 Node minimum:      452710.  Node maximum:      487861. integrals

 OPERATOR DM      FOR CENTER  0  COORDINATES:    0.000000    0.000000    0.000000


 **********************************************************************************************************************************
 DATASETS  * FILE   NREC   LENGTH (MB)   RECORD NAMES
              1      19       20.06       500      610      700      900      950      970     1000      129      960     1100
                                          VAR    BASINP    GEOM    SYMINP    ZMAT    AOBASIS   BASIS     P2S    ABASIS      S
                                         1400     1410     1420     1200     1210     1080     1600     1650     1700
                                           T        V       ECP      H0       H01     AOSYM     SMH    MOLCAS    OPER

 PROGRAMS   *        TOTAL       INT
 CPU TIMES  *         2.55      2.07
 REAL TIME  *         7.95 SEC
 DISK USED  *       101.80 MB
 GA USED    *         0.00 MB       (max)       0.00 MB       (current)
 **********************************************************************************************************************************


 PROGRAM * RHF-SCF (CLOSED SHELL)       Authors: W. Meyer, H.-J. Werner


 NUMBER OF ELECTRONS:       9+    9-    SPACE SYMMETRY=1    SPIN SYMMETRY: Singlet
 CONVERGENCE THRESHOLDS:    1.00E-05 (Density)    1.00E-07 (Energy)
 MAX. NUMBER OF ITERATIONS:       60
 INTERPOLATION TYPE:            DIIS
 INTERPOLATION STEPS:              2 (START)      1 (STEP)
 LEVEL SHIFTS:                  0.00 (CLOSED)  0.00 (OPEN)

 Number of closed-shell orbitals:    9 (   3   1   1   1   1   1   1   0 )



 Extra symmetries of mos in symmetry 1:   1   3   2

   Atom=PD basis=cc-pVTZ-PP        lmin=0  lmax=2

 Orbital guess generated from atomic densities. Full valence occupancy:    4   1   1   1   1   1   1   0


 Molecular orbital dump at record        4202.2

 ITERATION    DDIFF          GRAD             ENERGY        2-EL.EN.            DIPOLE MOMENTS         DIIS   ORB.
    1      0.000D+00      0.000D+00      -126.46025247    207.016515    0.00000    0.00000    0.00000    0    start
    2      0.000D+00      0.182D-01      -126.46367347    197.841166    0.00000    0.00000    0.00000    1    diag
    3      0.970D-02      0.199D-01      -126.49834820    202.097034    0.00000    0.00000    0.00000    2    diag
    4      0.414D-02      0.867D-03      -126.49840249    202.221486    0.00000    0.00000    0.00000    3    diag
    5      0.206D-03      0.992D-04      -126.49840334    202.238877    0.00000    0.00000    0.00000    4    diag
    6      0.438D-04      0.448D-05      -126.49840335    202.238872    0.00000    0.00000    0.00000    5    diag
    7      0.600D-05      0.507D-06      -126.49840335    202.239028    0.00000    0.00000    0.00000    0    orth

 Final occupancy:   3   1   1   1   1   1   1   0

 !RHF STATE 1.1 Energy               -126.498403347199
    --><property name="Energy" method="RHF" principal="true" stateSymmetry="1" stateNumber="1"
      value="-126.498403347199"/><!--
 Nuclear energy                         0.00000000
 One-electron energy                 -227.61791742
 Two-electron energy                  101.11951407
 Virial quotient                       -2.61645022
 !RHF STATE 1.1 Dipole moment           0.00000000     0.00000000     0.00000000
 Dipole moment /Debye                   0.00000000     0.00000000     0.00000000
    --><property name="Dipole moment" method="RHF" principal="true" stateSymmetry="1"
      stateNumber="1" value="0.0 0.0 0.0"/><!--

 ELECTRON ORBITALS
 =================


   Orb  Occ    Energy  Couls-En    Coefficients

                                   1 1s      1 1s      1 1s      1 1s      1 1s      1 1s      1 1s      1 1s      1 3d0     1 3d2+
                                   1 3d0     1 3d2+    1 3d0     1 3d2+    1 3d0     1 3d2+    1 3d0     1 3d2+    1 3d0     1 3d2+
                                   1 3d0     1 3d2+    1 5g0     1 5g4+    1 5g2+    1 5g0     1 5g4+    1 5g2+    1 5g0     1 5g4+
                                   1 5g2+

   1.1   2    -3.8402  -20.1006  0.995739 -0.000642 -0.000395  0.000407  0.000347  0.000925 -0.008100  0.011191 -0.000000  0.000000
                                 0.000000 -0.000000  0.000000 -0.000000  0.000000  0.000000 -0.000000 -0.000000  0.000000 -0.000000
                                 0.000000 -0.000000 -0.000000 -0.000000 -0.000000  0.000000  0.000000  0.000000  0.000000  0.000000
                                 0.000000

   2.1   2    -0.3285  -11.1259 -0.000000 -0.000000 -0.000000  0.000000  0.000000  0.000000 -0.000000  0.000000 -0.000021  1.000031
                                 0.000000 -0.000019  0.000000 -0.000010 -0.000000  0.000002  0.000000 -0.000003  0.000000 -0.000003
                                 0.000000 -0.000037 -0.000000  0.000000 -0.000000  0.000000  0.000000  0.000000  0.000000  0.000000
                                 0.000000

   3.1   2    -0.3285  -11.1259  0.000000  0.000000 -0.000000 -0.000000 -0.000000 -0.000000  0.000000 -0.000000  1.000031  0.000021
                                -0.000019 -0.000000 -0.000010 -0.000000  0.000002  0.000000 -0.000003 -0.000000 -0.000003 -0.000000
                                -0.000037 -0.000000 -0.000000  0.000000  0.000000  0.000000 -0.000000 -0.000000  0.000000 -0.000000
                                -0.000000

   4.1   0     0.0187   -3.9056 -0.009088  1.002838 -0.000485  0.001272  0.000998 -0.001959 -0.018849  0.026250  0.000000 -0.000000
                                -0.000000 -0.000000 -0.000000  0.000000  0.000000 -0.000000 -0.000000 -0.000000 -0.000000  0.000000
                                -0.000000  0.000000 -0.000000  0.000000 -0.000000 -0.000000 -0.000000  0.000000  0.000000 -0.000000
                                 0.000000

   5.1   0     0.0743   -2.0360 -0.000000 -0.000000  0.000000  0.000000  0.000000  0.000000 -0.000000  0.000000  0.001658 -0.188287
                                -0.000086  0.009723 -0.000592  0.067193  0.000247 -0.028083 -0.009117  1.035436  0.000014 -0.001533
                                -0.001010  0.114733  0.000000  0.000000  0.000000 -0.000000 -0.000000 -0.000000 -0.000000 -0.000000
                                -0.000000

                                   1 2px     1 2px     1 2px     1 2px     1 2px     1 2px     1 2px     1 2px     1 4f1+    1 4f3+
                                   1 4f1+    1 4f3+    1 4f1+    1 4f3+    1 4f1+    1 4f3+    1 6h1+    1 6h3+    1 6h5+    1 6h1+
                                   1 6h3+    1 6h5+

   1.2   2    -2.4023  -16.9228  1.007288 -0.001855 -0.000905  0.000294 -0.000718  0.000141  0.005648 -0.012294 -0.000000  0.000000
                                 0.000000 -0.000000  0.000000  0.000000  0.000000 -0.000000  0.000000  0.000000  0.000000 -0.000000
                                -0.000000 -0.000000

   2.2   0     0.0511   -2.6919  0.174343 -0.087778  0.002826 -0.011121 -0.035466  1.033686  0.186149 -0.405634  0.000000 -0.000000
                                 0.000000  0.000000  0.000000  0.000000 -0.000000  0.000000 -0.000000 -0.000000  0.000000  0.000000
                                 0.000000 -0.000000

   3.2   0     0.2865   -4.7467 -2.356266  1.536542 -0.297836  0.197584  0.382583 -0.604777 -1.881466  4.055302  0.000000 -0.000000
                                -0.000000  0.000000 -0.000000 -0.000000 -0.000000  0.000000  0.000000  0.000000 -0.000000 -0.000000
                                -0.000000  0.000000

                                   1 2py     1 2py     1 2py     1 2py     1 2py     1 2py     1 2py     1 2py     1 4f1-    1 4f3-
                                   1 4f1-    1 4f3-    1 4f1-    1 4f3-    1 4f1-    1 4f3-    1 6h1-    1 6h3-    1 6h5-    1 6h1-
                                   1 6h3-    1 6h5-

   1.3   2    -2.4023  -16.9228  1.007288 -0.001855 -0.000905  0.000294 -0.000718  0.000141  0.005648 -0.012294 -0.000000 -0.000000
                                 0.000000  0.000000  0.000000 -0.000000  0.000000  0.000000  0.000000  0.000000  0.000000 -0.000000
                                -0.000000 -0.000000

   2.3   0     0.0511   -2.6919  0.174343 -0.087778  0.002826 -0.011121 -0.035466  1.033686  0.186149 -0.405634  0.000000  0.000000
                                 0.000000 -0.000000  0.000000 -0.000000 -0.000000 -0.000000 -0.000000  0.000000  0.000000  0.000000
                                -0.000000 -0.000000

   3.3   0     0.2865   -4.7467 -2.356266  1.536542 -0.297836  0.197584  0.382583 -0.604777 -1.881466  4.055302  0.000000  0.000000
                                -0.000000 -0.000000 -0.000000  0.000000 -0.000000  0.000000  0.000000 -0.000000 -0.000000 -0.000000
                                 0.000000  0.000000

                                   1 3d2-    1 3d2-    1 3d2-    1 3d2-    1 3d2-    1 3d2-    1 3d2-    1 5g2-    1 5g4-    1 5g2-
                                   1 5g4-    1 5g2-    1 5g4-

   1.4   2    -0.3285  -11.1259  1.000031 -0.000019 -0.000010  0.000002 -0.000003 -0.000003 -0.000037 -0.000000 -0.000000  0.000000
                                 0.000000  0.000000  0.000000

   2.4   0     0.0743   -2.0360 -0.188294  0.009723  0.067195 -0.028084  1.035476 -0.001533  0.114738  0.000000  0.000000 -0.000000
                                -0.000000 -0.000000 -0.000000

   3.4   0     0.4510   -4.2458  1.165004  0.112371 -0.931520  0.376173 -0.437740  0.023221 -1.392138  0.000000 -0.000000  0.000000
                                 0.000000 -0.000000  0.000000

                                   1 2pz     1 2pz     1 2pz     1 2pz     1 2pz     1 2pz     1 2pz     1 2pz     1 4f0     1 4f2+
                                   1 4f0     1 4f2+    1 4f0     1 4f2+    1 4f0     1 4f2+    1 6h2+    1 6h4+    1 6h0     1 6h2+
                                   1 6h4+    1 6h0

   1.5   2    -2.4023  -16.9228  1.007288 -0.001855 -0.000905  0.000294 -0.000718  0.000141  0.005648 -0.012294  0.000000  0.000000
                                -0.000000  0.000000  0.000000  0.000000 -0.000000  0.000000 -0.000000 -0.000000  0.000000  0.000000
                                 0.000000 -0.000000

   2.5   0     0.0511   -2.6919  0.174343 -0.087778  0.002826 -0.011121 -0.035466  1.033686  0.186149 -0.405634 -0.000000  0.000000
                                 0.000000  0.000000 -0.000000  0.000000  0.000000 -0.000000  0.000000 -0.000000  0.000000 -0.000000
                                 0.000000 -0.000000

   3.5   0     0.2865   -4.7467 -2.356266  1.536542 -0.297836  0.197584  0.382583 -0.604777 -1.881466  4.055302  0.000000 -0.000000
                                -0.000000  0.000000  0.000000 -0.000000 -0.000000  0.000000  0.000000  0.000000 -0.000000  0.000000
                                -0.000000  0.000000

                                   1 3d1+    1 3d1+    1 3d1+    1 3d1+    1 3d1+    1 3d1+    1 3d1+    1 5g1+    1 5g3+    1 5g1+
                                   1 5g3+    1 5g1+    1 5g3+

   1.6   2    -0.3285  -11.1259  1.000031 -0.000019 -0.000010  0.000002 -0.000003 -0.000003 -0.000037 -0.000000  0.000000  0.000000
                                -0.000000  0.000000 -0.000000

   2.6   0     0.0743   -2.0360 -0.188294  0.009723  0.067195 -0.028084  1.035476 -0.001533  0.114738 -0.000000 -0.000000  0.000000
                                 0.000000  0.000000  0.000000

   3.6   0     0.4510   -4.2458  1.165004  0.112371 -0.931520  0.376173 -0.437740  0.023221 -1.392138  0.000000  0.000000 -0.000000
                                -0.000000 -0.000000 -0.000000

                                   1 3d1-    1 3d1-    1 3d1-    1 3d1-    1 3d1-    1 3d1-    1 3d1-    1 5g1-    1 5g3-    1 5g1-
                                   1 5g3-    1 5g1-    1 5g3-

   1.7   2    -0.3285  -11.1259  1.000031 -0.000019 -0.000010  0.000002 -0.000003 -0.000003 -0.000037 -0.000000 -0.000000  0.000000
                                 0.000000  0.000000  0.000000

   2.7   0     0.0743   -2.0360 -0.188294  0.009723  0.067195 -0.028084  1.035476 -0.001533  0.114738 -0.000000  0.000000  0.000000
                                -0.000000  0.000000 -0.000000

   3.7   0     0.4510   -4.2458  1.165004  0.112371 -0.931520  0.376173 -0.437740  0.023221 -1.392138  0.000000 -0.000000 -0.000000
                                 0.000000 -0.000000  0.000000

                                   1 4f2-    1 4f2-    1 4f2-    1 4f2-    1 6h4-    1 6h2-    1 6h4-    1 6h2-

   1.8   0     1.5270   -5.9972  0.089942  0.076346  0.934833  0.024893 -0.000000  0.000000  0.000000 -0.000000

   2.8   0     3.4089   -5.5463 -0.064902  1.026717 -0.712646  0.345860  0.000000  0.000000 -0.000000 -0.000000

 HOMO      3.1    -0.328489 =      -8.9386eV
 LUMO      4.1     0.018730 =       0.5097eV
 LUMO-HOMO         0.347219 =       9.4483eV


 **********************************************************************************************************************************
 DATASETS  * FILE   NREC   LENGTH (MB)   RECORD NAMES
              1      19       20.06       500      610      700      900      950      970     1000      129      960     1100
                                          VAR    BASINP    GEOM    SYMINP    ZMAT    AOBASIS   BASIS     P2S    ABASIS      S
                                         1400     1410     1420     1200     1210     1080     1600     1650     1700
                                           T        V       ECP      H0       H01     AOSYM     SMH    MOLCAS    OPER

              2       5        3.10       200      700     1000      520     4202
                                        OPTIONS   GEOM     BASIS   MCVARS     RHF

 PROGRAMS   *        TOTAL       RHF       INT
 CPU TIMES  *         2.68      0.13      2.07
 REAL TIME  *         8.14 SEC
 DISK USED  *       452.91 MB
 SF USED    *         0.01 MB
 GA USED    *         0.00 MB       (max)       0.00 MB       (current)
 **********************************************************************************************************************************
    -->
    <time start="07:55:21" end="07:55:26" cpu="2.68" system="0.51" real="8.14"/>
    <storage units="megabyte" memory="4097.84" sf="0.01" df="351.11" eaf="101.8" ga="0.0"/>
   </jobstep><!--
   --><jobstep command="RHF-SCF" commandset="SCFPRO">
    <!--


 Current variables in basis input:

 Set= 1  S_PAR(1)            =       2.58340000
 Set= 1  S_PAR(2)            =       1.61770000
 Set= 1  P_PAR(1)            =       3.24600000
 Set= 1  P_PAR(2)            =       1.81180000
 Set= 1  D_PAR(1)            =       4.40810000
 Set= 1  D_PAR(2)            =       1.70260000
 Set= 1  F_PAR(1)            =       6.15830000
 Set= 1  G_PAR(1)            =       3.53540000
 Set= 1  H_PAR(1)            =       3.36080000

 PROGRAM * RHF-SCF (CLOSED SHELL)       Authors: W. Meyer, H.-J. Werner


 NUMBER OF ELECTRONS:       9+    9-    SPACE SYMMETRY=1    SPIN SYMMETRY: Singlet
 CONVERGENCE THRESHOLDS:    1.00E-05 (Density)    1.00E-07 (Energy)
 MAX. NUMBER OF ITERATIONS:        0
 INTERPOLATION TYPE:            DIIS
 INTERPOLATION STEPS:              2 (START)      1 (STEP)
 LEVEL SHIFTS:                  0.00 (CLOSED)  0.00 (OPEN)

 Number of closed-shell orbitals:    9 (   3   1   1   1   1   1   1   0 )



 Extra symmetries of mos in symmetry 1:   1   3   2
 Molecular orbitals read from record     4202.2  Type=RHF/CANONICAL (state 1.1)

 Molecular orbital dump at record        2101.2

 ITERATION    DDIFF          GRAD             ENERGY        2-EL.EN.            DIPOLE MOMENTS         DIIS   ORB.
    1      0.000D+00      0.000D+00      -126.49840335    202.239028    0.00000    0.00000    0.00000    0    start

 Final occupancy:   3   1   1   1   1   1   1   0

 !RHF STATE 1.1 Energy               -126.498403347199
    --><property name="Energy" method="RHF" principal="true" stateSymmetry="1" stateNumber="1"
      value="-126.498403347199"/><!--
 Nuclear energy                         0.00000000
 One-electron energy                 -227.61791742
 Two-electron energy                  101.11951407
 Virial quotient                       -2.61645022
 !RHF STATE 1.1 Dipole moment           0.00000000     0.00000000     0.00000000
 Dipole moment /Debye                   0.00000000     0.00000000     0.00000000
    --><property name="Dipole moment" method="RHF" principal="true" stateSymmetry="1"
      stateNumber="1" value="0.0 0.0 0.0"/><!--

 ELECTRON ORBITALS
 =================


   Orb  Occ    Energy  Couls-En    Coefficients

                                   1 1s      1 1s      1 1s      1 1s      1 1s      1 1s      1 1s      1 1s      1 3d0     1 3d2+
                                   1 3d0     1 3d2+    1 3d0     1 3d2+    1 3d0     1 3d2+    1 3d0     1 3d2+    1 3d0     1 3d2+
                                   1 3d0     1 3d2+    1 5g0     1 5g4+    1 5g2+    1 5g0     1 5g4+    1 5g2+    1 5g0     1 5g4+
                                   1 5g2+

   1.1   2    -3.8402  -20.1006  0.995739 -0.000642 -0.000395  0.000407  0.000347  0.000925 -0.008100  0.011191 -0.000000  0.000000
                                 0.000000 -0.000000  0.000000 -0.000000  0.000000  0.000000 -0.000000 -0.000000  0.000000 -0.000000
                                 0.000000 -0.000000 -0.000000 -0.000000 -0.000000  0.000000  0.000000  0.000000  0.000000  0.000000
                                 0.000000

   2.1   2    -0.3285  -11.1259 -0.000000 -0.000000 -0.000000  0.000000  0.000000  0.000000 -0.000000  0.000000 -0.000021  1.000031
                                 0.000000 -0.000019  0.000000 -0.000010 -0.000000  0.000002  0.000000 -0.000003  0.000000 -0.000003
                                 0.000000 -0.000037 -0.000000  0.000000 -0.000000  0.000000  0.000000  0.000000  0.000000  0.000000
                                 0.000000

   3.1   2    -0.3285  -11.1259  0.000000  0.000000 -0.000000 -0.000000 -0.000000 -0.000000  0.000000 -0.000000  1.000031  0.000021
                                -0.000019 -0.000000 -0.000010 -0.000000  0.000002  0.000000 -0.000003 -0.000000 -0.000003 -0.000000
                                -0.000037 -0.000000 -0.000000  0.000000  0.000000  0.000000 -0.000000 -0.000000  0.000000 -0.000000
                                -0.000000

                                   1 2px     1 2px     1 2px     1 2px     1 2px     1 2px     1 2px     1 2px     1 4f1+    1 4f3+
                                   1 4f1+    1 4f3+    1 4f1+    1 4f3+    1 4f1+    1 4f3+    1 6h1+    1 6h3+    1 6h5+    1 6h1+
                                   1 6h3+    1 6h5+

   1.2   2    -2.4023  -16.9228  1.007288 -0.001855 -0.000905  0.000294 -0.000718  0.000141  0.005648 -0.012294 -0.000000  0.000000
                                 0.000000 -0.000000  0.000000  0.000000  0.000000 -0.000000  0.000000  0.000000  0.000000 -0.000000
                                -0.000000 -0.000000

                                   1 2py     1 2py     1 2py     1 2py     1 2py     1 2py     1 2py     1 2py     1 4f1-    1 4f3-
                                   1 4f1-    1 4f3-    1 4f1-    1 4f3-    1 4f1-    1 4f3-    1 6h1-    1 6h3-    1 6h5-    1 6h1-
                                   1 6h3-    1 6h5-

   1.3   2    -2.4023  -16.9228  1.007288 -0.001855 -0.000905  0.000294 -0.000718  0.000141  0.005648 -0.012294 -0.000000 -0.000000
                                 0.000000  0.000000  0.000000 -0.000000  0.000000  0.000000  0.000000  0.000000  0.000000 -0.000000
                                -0.000000 -0.000000

                                   1 3d2-    1 3d2-    1 3d2-    1 3d2-    1 3d2-    1 3d2-    1 3d2-    1 5g2-    1 5g4-    1 5g2-
                                   1 5g4-    1 5g2-    1 5g4-

   1.4   2    -0.3285  -11.1259  1.000031 -0.000019 -0.000010  0.000002 -0.000003 -0.000003 -0.000037 -0.000000 -0.000000  0.000000
                                 0.000000  0.000000  0.000000

                                   1 2pz     1 2pz     1 2pz     1 2pz     1 2pz     1 2pz     1 2pz     1 2pz     1 4f0     1 4f2+
                                   1 4f0     1 4f2+    1 4f0     1 4f2+    1 4f0     1 4f2+    1 6h2+    1 6h4+    1 6h0     1 6h2+
                                   1 6h4+    1 6h0

   1.5   2    -2.4023  -16.9228  1.007288 -0.001855 -0.000905  0.000294 -0.000718  0.000141  0.005648 -0.012294  0.000000  0.000000
                                -0.000000  0.000000  0.000000  0.000000 -0.000000  0.000000 -0.000000 -0.000000  0.000000  0.000000
                                 0.000000 -0.000000

                                   1 3d1+    1 3d1+    1 3d1+    1 3d1+    1 3d1+    1 3d1+    1 3d1+    1 5g1+    1 5g3+    1 5g1+
                                   1 5g3+    1 5g1+    1 5g3+

   1.6   2    -0.3285  -11.1259  1.000031 -0.000019 -0.000010  0.000002 -0.000003 -0.000003 -0.000037 -0.000000  0.000000  0.000000
                                -0.000000  0.000000 -0.000000

                                   1 3d1-    1 3d1-    1 3d1-    1 3d1-    1 3d1-    1 3d1-    1 3d1-    1 5g1-    1 5g3-    1 5g1-
                                   1 5g3-    1 5g1-    1 5g3-

   1.7   2    -0.3285  -11.1259  1.000031 -0.000019 -0.000010  0.000002 -0.000003 -0.000003 -0.000037 -0.000000 -0.000000  0.000000
                                 0.000000  0.000000  0.000000

 HOMO      3.1    -0.328489 =      -8.9386eV
 LUMO      4.1     0.018730 =       0.5097eV
 LUMO-HOMO         0.347219 =       9.4483eV


 **********************************************************************************************************************************
 DATASETS  * FILE   NREC   LENGTH (MB)   RECORD NAMES
              1      19       20.06       500      610      700      900      950      970     1000      129      960     1100
                                          VAR    BASINP    GEOM    SYMINP    ZMAT    AOBASIS   BASIS     P2S    ABASIS      S
                                         1400     1410     1420     1200     1210     1080     1600     1650     1700
                                           T        V       ECP      H0       H01     AOSYM     SMH    MOLCAS    OPER

              2       6        5.72       200      700     1000      520     4202     2101
                                        OPTIONS   GEOM     BASIS   MCVARS     RHF      RHF

 PROGRAMS   *        TOTAL       RHF       RHF       INT
 CPU TIMES  *         2.82      0.14      0.13      2.07
 REAL TIME  *        11.46 SEC
 DISK USED  *       452.91 MB
 SF USED    *         0.01 MB
 GA USED    *         0.00 MB       (max)       0.00 MB       (current)
 **********************************************************************************************************************************
    -->
    <time start="07:55:26" end="07:55:30" cpu="0.14" system="0.02" real="3.32"/>
    <storage units="megabyte" memory="4097.84" sf="0.01" df="351.11" eaf="101.8" ga="0.0"/>
   </jobstep><!--
   --><jobstep command="DATA" commandset="DATA">
    <!--


 RECORD   4202.2 RENAMED TO   4302.2


 **********************************************************************************************************************************
 DATASETS  * FILE   NREC   LENGTH (MB)   RECORD NAMES
              1      19       20.06       500      610      700      900      950      970     1000      129      960     1100
                                          VAR    BASINP    GEOM    SYMINP    ZMAT    AOBASIS   BASIS     P2S    ABASIS      S
                                         1400     1410     1420     1200     1210     1080     1600     1650     1700
                                           T        V       ECP      H0       H01     AOSYM     SMH    MOLCAS    OPER

              2       6        5.72       200      700     1000      520     4302     2101
                                        OPTIONS   GEOM     BASIS   MCVARS     RHF      RHF

 PROGRAMS   *        TOTAL      DATA       RHF       RHF       INT
 CPU TIMES  *         2.83      0.00      0.14      0.13      2.07
 REAL TIME  *        11.47 SEC
 DISK USED  *       452.91 MB
 SF USED    *         0.01 MB
 GA USED    *         0.00 MB       (max)       0.00 MB       (current)
 **********************************************************************************************************************************
    -->
    <time start="07:55:30" end="07:55:30" cpu="0.01" system="0.0" real="0.01"/>
    <storage units="megabyte" memory="4097.84" sf="0.01" df="351.11" eaf="101.8" ga="0.0"/>
   </jobstep><!--
   --><jobstep command="CI" commandset="CIPRO">
    <!--


 Current variables in basis input:

 Set= 1  S_PAR(1)            =       2.58340000
 Set= 1  S_PAR(2)            =       1.61770000
 Set= 1  P_PAR(1)            =       3.24600000
 Set= 1  P_PAR(2)            =       1.81180000
 Set= 1  D_PAR(1)            =       4.40810000
 Set= 1  D_PAR(2)            =       1.70260000
 Set= 1  F_PAR(1)            =       6.15830000
 Set= 1  G_PAR(1)            =       3.53540000
 Set= 1  H_PAR(1)            =       3.36080000

 PROGRAM * CI (Multireference internally contracted CI)     Authors: H.-J. Werner, P.J. Knowles, 1987


 Convergence thresholds:  THRVAR = 1.00D-08  THRDEN = 1.00D-06

 Number of optimized states:  1  Roots:   1
 Number of reference states:  1  Roots:   1

 Reference symmetry:                   1   Singlet
 Number of electrons:                 18
 Maximum number of shells:             3
 Maximum number of spin couplings:     2

 Reference space:        1 conf        1 CSFs
 N elec internal:        1 conf        1 CSFs
 N-1 el internal:        9 conf        9 CSFs
 N-2 el internal:       45 conf       81 CSFs

 Number of electrons in valence space:                     18
 Maximum number of open shell orbitals in reference space:  0
 Maximum number of open shell orbitals in internal spaces:  4


 Number of closed-shell orbitals:   9 (   3   1   1   1   1   1   1   0 )
 Number of external orbitals:     135 (  28  21  21  12  21  12  12   8 )

 Molecular orbitals read from record     2101.2  Type=RHF/CANONICAL (state 1.1)

 Integral transformation finished. Total CPU:   0.03 sec, npass=  1  Memory used:   0.19 MW

 Number of p-space configurations:   1

 Reference wavefunction optimized for reference space (refopt=1)

 State     Reference Energy
   1        -126.49840335

 Number of blocks in overlap matrix:    81   Smallest eigenvalue:  0.10D+01
 Number of N-2 electron functions:      81
 Number of N-1 electron functions:       9

 Number of internal configurations:                    1
 Number of singly external configurations:           183
 Number of doubly external configurations:         94320
 Total number of contracted configurations:        94504
 Total number of uncontracted configurations:      94504

 Diagonal Coupling coefficients finished.               Storage:    5821 words, CPU-Time:      0.00 seconds.
 Energy denominators for pairs finished in 1 passes.    Storage:   51414 words, CPU-time:      0.05 seconds.

  ITER. STATE  ROOT     SQ.NORM     CORR.ENERGY   TOTAL ENERGY   ENERGY CHANGE       DEN1      VAR(S)    VAR(P)      TIME
    1     1     1     1.00000000     0.00000000  -126.49840335    -0.00000000    -0.89795682  0.35D-10  0.18D+00     0.56
    2     1     1     1.10362802    -0.69050388  -127.18890723    -0.69050388    -0.02362862  0.34D-03  0.41D-02     0.63
    3     1     1     1.09425397    -0.71231369  -127.21071704    -0.02180981    -0.00034676  0.73D-04  0.40D-04     0.67
    4     1     1     1.09448007    -0.71260655  -127.21100990    -0.00029286    -0.00001693  0.16D-05  0.27D-05     0.71
    5     1     1     1.09454209    -0.71262393  -127.21102728    -0.00001737    -0.00000063  0.35D-07  0.13D-06     0.75
    6     1     1     1.09457641    -0.71262466  -127.21102800    -0.00000073    -0.00000004  0.16D-08  0.80D-08     0.78


 =====================================
 Analysis of CPU times by interactions
 =====================================

       I      S      P

 I   0.0%
 S   0.0%   5.1%
 P   0.0%   5.1%   5.1%

 Initialization:  71.8%
 Other:           12.8%

 Total CPU:        0.8 seconds
 =====================================



 Reference coefficients greater than 0.0500000
 =============================================
 222222222           0.9558219



 RESULTS FOR STATE 1.1
 =====================
