
 Primary working directories    : /global/cscratch1/sd/bkincaid
 Secondary working directories  : /global/cscratch1/sd/bkincaid
 Wavefunction directory         : /global/homes/b/bkincaid/wfu/
 Main file repository           : /global/cscratch1/sd/bkincaid/

 SHA1      : 19cd028119e0e09f93f0674bd8af7968d9b3eff6
 NAME      : 2015.1.36
 ARCHNAME  : linux/x86_64
 FC        : /opt/cray/pe/craype/2.5.14/bin/ftn
 BLASLIB   : -L/opt/intel/compilers_and_libraries_2018.1.163/linux/mkl/lib/intel64 -Wl,-_start-group -lmkl_intel_ilp64 -lmkl_intel_thread -lmkl_core -Wl,-_end-group -liomp5
 id        : lbl

 Nodes     nprocs
 nid13006    11
 Number of processes for MPI-2 version of Molpro:   nprocs(total)=   12   nprocs(compute)=   11   nprocs(helper)=    1

 Using customized tuning parameters: mindgm=7; mindgv=16; mindgc=1; mindgr=1; noblas=0; minvec=7
 default implementation of scratch files=sf  

 ***,Calculation for IrO groundstate
 memory,1024,m
 gthresh,twoint=1.0E-15
 gthresh,throvl=1.0E-15
 
 set,dkroll=1,dkho=10,dkhp=4
 
 basis={
 Including file /global/u1/b/bkincaid/molpro/Ir/molecules/tz/IrO/ae/1.900/tz.basis
 Including file /global/u1/b/bkincaid/molpro/Ir/molecules/tz/IrO/ae/1.900/O-aug-cc-CVTZ.basis
 }
 
 ne = 85
 
 A1=20
 B1=9
 B2=10
 A2=4
 
 do i=1,1
 z(i) = 1.900 - 0.1*(i-1)
 geometry={
 2
 IrO
 Ir 0.0 0.0 0.0
 O 0.0 0.0 z(i)
 }
 {rks,pbe0
 wf,nele=ne,spin=1,sym=4
         occ,A1,B1,B2,A2
         closed,A1,B1,B2,A2-1
 }
 pbe(i)=energy
 {rhf
 wf,nelec=ne,spin=1,sym=4
         occ,A1,B1,B2,A2
         closed,A1,B1,B2,A2-1
 }
 scf(i)=energy
 _CC_NORM_MAX=2.0
 {rccsd(t);maxit,100;core}
 ccsd(i)=energy
 enddo
 
 table,z,pbe,scf,ccsd
 save
 type,csv
 

 Variables initialized (889), CPU time= 0.00 sec
 Commands  initialized (702), CPU time= 0.01 sec, 572 directives.
 Default parameters read. Elapsed time= 0.18 sec

 Checking input...
 Passed
1


                                         ***  PROGRAM SYSTEM MOLPRO  ***
                                       Copyright, TTI GmbH Stuttgart, 2015
                                    Version 2015.1 linked Dec 29 2018 15:55:43


 **********************************************************************************************************************************
 LABEL *   Calculation for IrO groundstate                                               
  64 bit mpp version                                                                     DATE: 06-Mar-21          TIME: 18:28:04  
 **********************************************************************************************************************************

 SHA1:             19cd028119e0e09f93f0674bd8af7968d9b3eff6
 **********************************************************************************************************************************

 THRESHOLDS:

 ZERO    =  1.00D-12  ONEINT  =  1.00D-12  TWOINT  =  1.00D-15  PREFAC  =  1.00D-14  LOCALI  =  1.00D-09  EORDER  =  1.00D-04
 ENERGY  =  0.00D+00  ETEST   =  0.00D+00  EDENS   =  0.00D+00  THRDEDEF=  1.00D-06  GRADIENT=  1.00D-02  STEP    =  1.00D-03
 ORBITAL =  1.00D-05  CIVEC   =  1.00D-05  COEFF   =  1.00D-04  PRINTCI =  5.00D-02  PUNCHCI =  9.90D+01  OPTGRAD =  3.00D-04
 OPTENERG=  1.00D-06  OPTSTEP =  3.00D-04  THRGRAD =  1.00D-10  COMPRESS=  1.00D-11  VARMIN  =  1.00D-07  VARMAX  =  1.00D-03
 THRDOUB =  0.00D+00  THRDIV  =  1.00D-05  THRRED  =  1.00D-07  THRPSP  =  1.00D+00  THRDC   =  1.00D-10  THRCS   =  1.00D-10
 THRNRM  =  1.00D-08  THREQ   =  0.00D+00  THRDE   =  1.00D+00  THRREF  =  1.00D-05  SPARFAC =  1.00D+00  THRDLP  =  1.00D-07
 THRDIA  =  1.00D-10  THRDLS  =  1.00D-07  THRGPS  =  0.00D+00  THRKEX  =  0.00D+00  THRDIS  =  2.00D-01  THRVAR  =  1.00D-10
 THRLOC  =  1.00D-06  THRGAP  =  1.00D-06  THRLOCT = -1.00D+00  THRGAPT = -1.00D+00  THRORB  =  1.00D-06  THRMLTP =  0.00D+00
 THRCPQCI=  1.00D-10  KEXTA   =  0.00D+00  THRCOARS=  0.00D+00  SYMTOL  =  1.00D-06  GRADTOL =  1.00D-06  THROVL  =  1.00D-08
 THRORTH =  1.00D-08  GRID    =  1.00D-06  GRIDMAX =  1.00D-03  DTMAX   =  0.00D+00  THROCCDE=  1.00D-01  THROCCDE=  1.00D-01



 THRESHOLDS:

 ZERO    =  1.00D-12  ONEINT  =  1.00D-12  TWOINT  =  1.00D-15  PREFAC  =  1.00D-14  LOCALI  =  1.00D-09  EORDER  =  1.00D-04
 ENERGY  =  0.00D+00  ETEST   =  0.00D+00  EDENS   =  0.00D+00  THRDEDEF=  1.00D-06  GRADIENT=  1.00D-02  STEP    =  1.00D-03
 ORBITAL =  1.00D-05  CIVEC   =  1.00D-05  COEFF   =  1.00D-04  PRINTCI =  5.00D-02  PUNCHCI =  9.90D+01  OPTGRAD =  3.00D-04
 OPTENERG=  1.00D-06  OPTSTEP =  3.00D-04  THRGRAD =  1.00D-10  COMPRESS=  1.00D-11  VARMIN  =  1.00D-07  VARMAX  =  1.00D-03
 THRDOUB =  0.00D+00  THRDIV  =  1.00D-05  THRRED  =  1.00D-07  THRPSP  =  1.00D+00  THRDC   =  1.00D-10  THRCS   =  1.00D-10
 THRNRM  =  1.00D-08  THREQ   =  0.00D+00  THRDE   =  1.00D+00  THRREF  =  1.00D-05  SPARFAC =  1.00D+00  THRDLP  =  1.00D-07
 THRDIA  =  1.00D-10  THRDLS  =  1.00D-07  THRGPS  =  0.00D+00  THRKEX  =  0.00D+00  THRDIS  =  2.00D-01  THRVAR  =  1.00D-10
 THRLOC  =  1.00D-06  THRGAP  =  1.00D-06  THRLOCT = -1.00D+00  THRGAPT = -1.00D+00  THRORB  =  1.00D-06  THRMLTP =  0.00D+00
 THRCPQCI=  1.00D-10  KEXTA   =  0.00D+00  THRCOARS=  0.00D+00  SYMTOL  =  1.00D-06  GRADTOL =  1.00D-06  THROVL  =  1.00D-15
 THRORTH =  1.00D-08  GRID    =  1.00D-06  GRIDMAX =  1.00D-03  DTMAX   =  0.00D+00  THROCCDE=  1.00D-01  THROCCDE=  1.00D-01


 SETTING DKROLL         =         1.00000000                                  
 SETTING DKHO           =        10.00000000                                  
 SETTING DKHP           =         4.00000000                                  

 Variable memory set to 1024000000 words,  buffer space   230000 words

 SETTING BASIS          =    USERDEF
 SETTING NE             =        85.00000000                                  
 SETTING A1             =        20.00000000                                  
 SETTING B1             =         9.00000000                                  
 SETTING B2             =        10.00000000                                  
 SETTING A2             =         4.00000000                                  

 DO I                   =         1.00000000   
 SETTING Z(1)           =         1.90000000                                  

Geometry recognized as XYZ



 Recomputing integrals since basis changed


 Using spherical harmonics



 PROGRAM * SEWARD (Integral evaluation for generally contracted gaussian basis sets)     Author: Roland Lindh, 1990

 Geometry written to block  1 of record 700


 Point group  C2v 



 ATOMIC COORDINATES

 NR  ATOM    CHARGE       X              Y              Z

   1  IR     77.00    0.000000000    0.000000000    0.000000000
   2  O       8.00    0.000000000    0.000000000    3.590479637

 Bond lengths in Bohr (Angstrom)

 1-2  3.590479637
     ( 1.900000000)

 NUCLEAR CHARGE:                   85
 NUMBER OF PRIMITIVE AOS:         541
 NUMBER OF SYMMETRY AOS:          446
 NUMBER OF CONTRACTIONS:          446   ( 185A1  + 106B1  + 106B2  +  49A2  )
 NUMBER OF CORE ORBITALS:          35   (  16A1  +   8B1  +   8B2  +   3A2  )
 NUMBER OF VALENCE ORBITALS:       10   (   5A1  +   2B1  +   2B2  +   1A2  )


 NUCLEAR REPULSION ENERGY  171.56482207

 One-electron integrals computed with SEWARD

 10nd-order Douglas-Kroll-Hess method activated. McWeeny DKH parametrization is used.

 Computing Douglas-Kroll / X2C integrals

 AO integral compression algorithm  1   Integral accuracy      1.0D-15

     4389.601 MB (compressed) written to integral file ( 37.5%)

     Node minimum: 218.628 MB, node maximum: 838.337 MB


 NUMBER OF SORTED TWO-ELECTRON INTEGRALS:  115711532.     BUFFER LENGTH:  32768
 NUMBER OF SEGMENTS:   4  SEGMENT LENGTH:   31989761      RECORD LENGTH: 524288

 Memory used in sort:      32.55 MW

 SORT1 READ  1465035727. AND WROTE    43524460. INTEGRALS IN    127 RECORDS. CPU TIME:    20.73 SEC, REAL TIME:    28.19 SEC
 SORT2 READ   475257552. AND WROTE  1273302750. INTEGRALS IN  11913 RECORDS. CPU TIME:     8.00 SEC, REAL TIME:     9.03 SEC

 Node minimum:   115641882.  Node maximum:   115920125. integrals

 OPERATOR DM      FOR CENTER  0  COORDINATES:    0.000000    0.000000    0.000000

 EXTRA SYMMETRY OF AOS IN SYMMETRY 1:   1 1 1 1 1 1 1 1 1 1   1 1 1 1 1 1 1 1 1 1   1 1 1 1 1 1 1 1 1 1   1 1 1 1 1 1 1 1 1 1
                                        1 1 1 1 1 1 1 1 1 1   1 1 1 1 1 1 1 1 1 1   1 1 1 1 1 1 1 1 1 1   1 1 1 1 1 1 1 1 1 1
                                        1 1 1 1 1 1 1 1 1 1   1 1 1 1 1 1 1 1 1 1   1 1 1 1 1 1 1 1 1 1   1 1 1 1 1 1 1 1 1 1
                                        1 1 1 1 1 1 1 1 1 1   1 1 1 1 1 1 1 1 1 1   1 1 1 1 2 1 1 2 1 1   2 1 1 1 1 1 1 1 1 1
                                        1 1 1 1 1 1 1 1 1 1   1 1 1 1 1 1 1 1 1 1   1 1 1 1 1
 EXTRA SYMMETRY OF AOS IN SYMMETRY 2:   1 1 1 1 1 1 1 1 1 1   1 1 1 1 1 1 1 1 1 1   1 1 1 1 1 1 1 1 1 1   1 1 1 1 1 1 1 1 1 1
                                        1 1 1 1 1 1 1 1 1 1   1 1 1 1 1 2 1 2 1 2   1 2 1 2 1 2 1 2 1 2   1 2 1 2 1 2 1 2 1 2
                                        1 2 1 2 1 2 1 2 1 2   1 1 1 1 1 1 1 1 1 1   1 1 1 2 1 2
 EXTRA SYMMETRY OF AOS IN SYMMETRY 3:   1 1 1 1 1 1 1 1 1 1   1 1 1 1 1 1 1 1 1 1   1 1 1 1 1 1 1 1 1 1   1 1 1 1 1 1 1 1 1 1
                                        1 1 1 1 1 1 1 1 1 1   1 1 1 1 1 2 1 2 1 2   1 2 1 2 1 2 1 2 1 2   1 2 1 2 1 2 1 2 1 2
                                        1 2 1 2 1 2 1 2 1 2   1 1 1 1 1 1 1 1 1 1   1 1 1 2 1 2
 EXTRA SYMMETRY OF AOS IN SYMMETRY 4:   1 1 1 1 1 1 1 1 1 1   1 1 1 1 1 1 1 1 1 1   1 1 1 1 1 1 1 1 1 1   1 1 1 1 1 1 1 1 2 1
                                        2 1 2 1 1 1 1 1 1

 Eigenvalues of metric

         1 0.167E-06 0.355E-06 0.775E-06 0.805E-06 0.143E-05 0.491E-05 0.508E-05 0.116E-04
         2 0.172E-06 0.802E-06 0.512E-05 0.116E-04 0.264E-04 0.525E-04 0.547E-04 0.558E-04
         3 0.172E-06 0.802E-06 0.512E-05 0.116E-04 0.264E-04 0.525E-04 0.547E-04 0.558E-04
         4 0.805E-06 0.267E-04 0.542E-04 0.166E-03 0.628E-03 0.978E-03 0.214E-02 0.553E-02


 **********************************************************************************************************************************
 DATASETS  * FILE   NREC   LENGTH (MB)   RECORD NAMES
              1      22       23.93       500      610      700      900      950      970     1000      129      960     1700   
                                          VAR    BASINP    GEOM    SYMINP    ZMAT    AOBASIS   BASIS     P2S    ABASIS    OPER   
                                         1101     1401     1411     1412     1650     1100     1400     1410     1200     1210   
                                          SR      EKINR    POTR     PVPR    MOLCAS      S      EKIN      POT      H0       H01  
                                         1080     1600   
                                         AOSYM     SMH  

 PROGRAMS   *        TOTAL       INT
 CPU TIMES  *       177.43    177.14
 REAL TIME  *       188.07 SEC
 DISK USED  *        10.15 GB      
 GA USED    *         0.00 MB       (max)       0.00 MB       (current)
 **********************************************************************************************************************************

 Density functional group PBE0=PBEX+PBEC
 Functional: PBEX(Automatically generated (new) PBEX)                          Gradient terms: 1
 Functional: PBEC(Automatically generated (new) PBEC)                          Gradient terms: 1
 Use grid at  1800.2
 

 Exact exchange will be calculated, factor:  0.2500

 Functional: PBEX                      Factor:  0.7500
 Functional: PBEC                      Factor:  1.0000
 
 Generated new metagrid on record  1800.2 with target accuracy 1.0D-06 and 5578 points in CPU time    0.1
 Computed new grid on record 1800.1 in CPU time    0.1
  355296 words reserved for DFT integration

 PROGRAM * RKS-SCF (Restricted open shell Kohn-Sham)     Authors: W. Meyer, H.-J. Werner, P.J. Knowles, 1993

 NUMBER OF ELECTRONS:      43+   42-    SPACE SYMMETRY=4    SPIN SYMMETRY: Doublet 
 CONVERGENCE THRESHOLDS:    1.00E-05 (Density)    1.70E-06 (Energy)
 MAX. NUMBER OF ITERATIONS:       60
 INTERPOLATION TYPE:            DIIS
 INTERPOLATION STEPS:              2 (START)      1 (STEP)
 LEVEL SHIFTS:                 -0.60 (CLOSED) -0.30 (OPEN) 

 Number of closed-shell orbitals:   42 (  20   9  10   3 )
 Number of open-shell orbitals:      1 (   0   0   0   1 )


 Use fine grid record 1800.2 for energy threshold  1.0D-06
 Orbital guess generated from atomic densities. Full valence occupancy:   21  10  10   4

 Molecular orbital dump at record        2100.2

 ITERATION    DDIFF          GRAD             ENERGY        2-EL.EN.            DIPOLE MOMENTS         DIIS   ORB.
    1      0.000D+00      0.000D+00    -17893.79860901  13461.927466    0.00000    0.00000  -12.06669    0    start
    2      0.000D+00      0.357D-01    -17888.30127460  14946.567559    0.00000    0.00000   16.81067    1    diag,B
    3      0.155D+01      0.906D-01    -17903.53415924  14555.815754    0.00000    0.00000    3.83524    2    diag,B
    4      0.376D+00      0.383D-01    -17905.73562854  14416.627059    0.00000    0.00000    2.88875    3    diag,B
    5      0.894D-01      0.225D-01    -17907.22855427  14277.204020    0.00000    0.00000   -1.12546    4    diag,B
    6      0.213D-01      0.884D-02    -17907.43293691  14226.490314    0.00000    0.00000   -1.06046    5    diag,B
    7      0.337D-02      0.349D-02    -17907.50745694  14182.744217    0.00000    0.00000   -1.86816    6    fixocc
    8      0.358D-02      0.987D-03    -17907.51648474  14179.545246    0.00000    0.00000   -1.83431    7    diag,B
    9      0.117D-02      0.741D-03    -17907.52168347  14180.389450    0.00000    0.00000   -1.75530    8    diag,B
   10      0.740D-03      0.482D-03    -17907.52665222  14180.658945    0.00000    0.00000   -1.61886    9    orth
   11      0.993D-03      0.235D-03    -17907.52928759  14179.614902    0.00000    0.00000   -1.54870    9    diag,B
   12      0.813D-03      0.157D-03    -17907.53066070  14179.514530    0.00000    0.00000   -1.46191    9    diag,B
   13      0.595D-03      0.108D-03    -17907.53118190  14178.298027    0.00000    0.00000   -1.44358    9    diag,B
   14      0.387D-03      0.553D-04    -17907.53134751  14178.158217    0.00000    0.00000   -1.41363    9    diag,B
   15      0.288D-03      0.305D-04    -17907.53139107  14178.100592    0.00000    0.00000   -1.40844    9    diag,B
   16      0.122D-03      0.200D-04    -17907.53140940  14178.061445    0.00000    0.00000   -1.40227    9    diag,B
   17      0.525D-04      0.136D-04    -17907.53141860  14178.015283    0.00000    0.00000   -1.39603    9    diag,B
   18      0.766D-04      0.647D-05    -17907.53142010  14178.029552    0.00000    0.00000   -1.39573    9    diag,B
   19      0.246D-04      0.425D-05    -17907.53142093  14178.023208    0.00000    0.00000   -1.39514    9    diag,B
   20      0.200D-04      0.243D-05    -17907.53142118  14178.017120    0.00000    0.00000   -1.39431    9    orth
   21      0.653D-05      0.153D-05    -17907.53142123  14178.020287    0.00000    0.00000   -1.39440    0    orth

 Final alpha occupancy:  20   9  10   4
 Final beta  occupancy:  20   9  10   3

 !RKS STATE 1.4 Energy               -17907.5314212276    
 Nuclear energy                       171.56482207
 One-electron energy               -24895.41563805
 Two-electron energy                 7089.01014335
 Density functional                  -272.69074859     PBEX=-357.04149377 PBEC=  -4.90962827
 Virial quotient                       -0.67958439
 !RKS STATE 1.4 Dipole moment           0.00000000     0.00000000    -1.39440223
 Dipole moment /Debye                   0.00000000     0.00000000    -3.54398481

 Orbital energies:

         1.1          2.1          3.1          4.1          5.1          6.1          7.1          8.1          9.1         10.1
  -2794.638139  -490.186846  -427.361096  -115.287141   -96.747000   -75.583228   -75.576013   -24.928695   -19.288289   -18.788750

        11.1         12.1         13.1         14.1         15.1         16.1         17.1         18.1         19.1         20.1
    -11.039541   -11.025819    -3.765229    -2.490985    -2.470660    -2.158805    -0.953245    -0.423852    -0.316779    -0.271112

        21.1         22.1
     -0.126571     0.015448

         1.2          2.2          3.2          4.2          5.2          6.2          7.2          8.2          9.2         10.2
   -427.363585   -96.754807   -75.582193   -18.800708   -11.041073    -2.490846    -2.482046    -2.155273    -0.375301    -0.192767

        11.2
     -0.016955

         1.3          2.3          3.3          4.3          5.3          6.3          7.3          8.3          9.3         10.3
   -427.359381   -96.744915   -75.575857   -18.781364   -11.024906    -2.484079    -2.470940    -2.124448    -0.383392    -0.262408

        11.3         12.3
     -0.010753     0.108542

         1.4          2.4          3.4          4.4          5.4          6.4
    -75.581297   -11.036220    -2.483898    -0.345225     0.134594     0.436174

 HOMO     10.3    -0.262408 =      -7.1405eV
 LUMO     10.2    -0.192767 =      -5.2454eV
 LUMO-HOMO         0.069641 =       1.8950eV


 **********************************************************************************************************************************
 DATASETS  * FILE   NREC   LENGTH (MB)   RECORD NAMES
              1      23       23.93       500      610      700      900      950      970     1000      129      960     1700   
                                          VAR    BASINP    GEOM    SYMINP    ZMAT    AOBASIS   BASIS     P2S    ABASIS    OPER   
                                         1101     1401     1411     1412     1650     1100     1400     1410     1200     1210   
                                          SR      EKINR    POTR     PVPR    MOLCAS      S      EKIN      POT      H0       H01  
                                         1080     1600     1800   
                                         AOSYM     SMH     GRID   

              2       5        4.50       700     1000      520     1800     2100   
                                         GEOM     BASIS   MCVARS    GRID      RKS  

 PROGRAMS   *        TOTAL       RKS       INT
 CPU TIMES  *       191.06     13.63    177.14
 REAL TIME  *       202.75 SEC
 DISK USED  *        10.56 GB      
 SF USED    *         0.24 MB      
 GA USED    *         0.24 MB       (max)       0.24 MB       (current)
 **********************************************************************************************************************************
 SETTING PBE(1)         =    -17907.53142123  AU                              


 PROGRAM * RHF-SCF (OPEN SHELL)       Authors: W. Meyer, H.-J. Werner


 NUMBER OF ELECTRONS:      43+   42-    SPACE SYMMETRY=4    SPIN SYMMETRY: Doublet 
 CONVERGENCE THRESHOLDS:    1.00E-05 (Density)    1.70E-07 (Energy)
 MAX. NUMBER OF ITERATIONS:       60
 INTERPOLATION TYPE:            DIIS
 INTERPOLATION STEPS:              2 (START)      1 (STEP)
 LEVEL SHIFTS:                 -0.60 (CLOSED) -0.30 (OPEN) 

 Number of closed-shell orbitals:   42 (  20   9  10   3 )
 Number of open-shell orbitals:      1 (   0   0   0   1 )


 Molecular orbitals read from record     2100.2  Type=RKS/CANONICAL (state 1.4)

 Molecular orbital dump at record        2101.2

 ITERATION    DDIFF          GRAD             ENERGY        2-EL.EN.            DIPOLE MOMENTS         DIIS   ORB.
    1      0.000D+00      0.000D+00    -17901.66332970  13644.374973    0.00000    0.00000   -1.39440    0    start
    2      0.000D+00      0.118D+00    -17901.71384565  13648.694731    0.00000    0.00000   -1.74454    1    diag,B
    3      0.277D-02      0.134D-02    -17901.71797344  13643.389936    0.00000    0.00000   -1.84338    2    diag,B
    4      0.722D-03      0.727D-03    -17901.71920615  13647.216504    0.00000    0.00000   -1.88657    3    diag,B
    5      0.254D-03      0.364D-03    -17901.72017504  13646.452242    0.00000    0.00000   -1.94586    4    diag,B
    6      0.251D-03      0.167D-03    -17901.72088728  13646.828672    0.00000    0.00000   -1.99593    5    diag,B
    7      0.266D-03      0.995D-04    -17901.72116851  13647.005613    0.00000    0.00000   -2.02167    6    diag,B
    8      0.141D-03      0.774D-04    -17901.72142012  13647.461937    0.00000    0.00000   -2.03232    7    orth
    9      0.158D-03      0.625D-04    -17901.72163660  13647.769581    0.00000    0.00000   -2.03970    8    diag,B
   10      0.169D-03      0.436D-04    -17901.72179861  13648.324081    0.00000    0.00000   -2.03909    9    diag,B
   11      0.188D-03      0.275D-04    -17901.72185718  13648.639519    0.00000    0.00000   -2.03521    9    diag,B
   12      0.130D-03      0.166D-04    -17901.72187185  13648.784860    0.00000    0.00000   -2.03121    9    diag,B
   13      0.439D-04      0.128D-04    -17901.72188153  13648.879646    0.00000    0.00000   -2.02690    9    diag,B
   14      0.436D-04      0.906D-05    -17901.72188693  13648.938313    0.00000    0.00000   -2.02223    9    diag,B
   15      0.372D-04      0.604D-05    -17901.72188940  13648.979123    0.00000    0.00000   -2.01855    9    diag,B
   16      0.227D-04      0.356D-05    -17901.72189013  13648.991117    0.00000    0.00000   -2.01618    9    diag,B
   17      0.136D-04      0.220D-05    -17901.72189035  13648.992993    0.00000    0.00000   -2.01488    9    diag,B
   18      0.659D-05      0.159D-05    -17901.72189044  13648.993519    0.00000    0.00000   -2.01414    9    orth
   19      0.333D-05      0.136D-05    -17901.72189048  13648.991358    0.00000    0.00000   -2.01396    0    orth

 Final alpha occupancy:  20   9  10   4
 Final beta  occupancy:  20   9  10   3

 !RHF STATE 1.4 Energy               -17901.7218904757    
 Nuclear energy                       171.56482207
 One-electron energy               -24897.78239142
 Two-electron energy                 6824.49567888
 Virial quotient                       -0.67999035
 !RHF STATE 1.4 Dipole moment           0.00000000     0.00000000    -2.01396306
 Dipole moment /Debye                   0.00000000     0.00000000    -5.11864823

 Orbital energies:

         1.1          2.1          3.1          4.1          5.1          6.1          7.1          8.1          9.1         10.1
  -2813.214630  -497.509541  -433.549920  -118.797317   -99.705109   -77.895090   -77.885630   -26.640057   -20.619348   -20.244226

        11.1         12.1         13.1         14.1         15.1         16.1         17.1         18.1         19.1         20.1
    -12.109985   -12.092440    -4.248534    -3.045521    -3.028417    -2.495506    -1.215127    -0.549047    -0.457053    -0.354929

        21.1         22.1
     -0.020657     0.039751

         1.2          2.2          3.2          4.2          5.2          6.2          7.2          8.2          9.2         10.2
   -433.552522   -99.713157   -77.888239   -20.255766   -12.099158    -3.045337    -3.040133    -2.485430    -0.417125    -0.024222

        11.2
      0.056719

         1.3          2.3          3.3          4.3          5.3          6.3          7.3          8.3          9.3         10.3
   -433.550197   -99.704370   -77.887915   -20.239146   -12.096415    -3.042160    -3.028576    -2.476255    -0.542646    -0.399250

        11.3         12.3
      0.048174     0.175914

         1.4          2.4          3.4          4.4          5.4          6.4
    -77.889759   -12.098675    -3.039770    -0.491098     0.195246     0.561096

 HOMO     20.1    -0.354929 =      -9.6581eV
 LUMO     10.2    -0.024222 =      -0.6591eV
 LUMO-HOMO         0.330708 =       8.9990eV


 **********************************************************************************************************************************
 DATASETS  * FILE   NREC   LENGTH (MB)   RECORD NAMES
              1      23       23.93       500      610      700      900      950      970     1000      129      960     1700   
                                          VAR    BASINP    GEOM    SYMINP    ZMAT    AOBASIS   BASIS     P2S    ABASIS    OPER   
                                         1101     1401     1411     1412     1650     1100     1400     1410     1200     1210   
                                          SR      EKINR    POTR     PVPR    MOLCAS      S      EKIN      POT      H0       H01  
                                         1080     1600     1800   
                                         AOSYM     SMH     GRID   

              2       6        9.38       700     1000      520     1800     2100     2101   
                                         GEOM     BASIS   MCVARS    GRID      RKS      RHF  

 PROGRAMS   *        TOTAL       RHF       RKS       INT
 CPU TIMES  *       201.21     10.15     13.63    177.14
 REAL TIME  *       213.70 SEC
 DISK USED  *        10.61 GB      
 SF USED    *         0.24 MB      
 GA USED    *         0.24 MB       (max)       0.24 MB       (current)
 **********************************************************************************************************************************
 SETTING SCF(1)         =    -17901.72189048  AU                              
 SETTING _CC_NORM_MAX   =         2.00000000                                  


 PROGRAM * CCSD (Restricted open-shell coupled cluster)     Authors: C. Hampel, H.-J. Werner, 1991, M. Deegan, P.J. Knowles, 1992


 Convergence thresholds:  THRVAR = 1.00D-08  THRDEN = 1.70D-06

 CCSD(T)     terms to be evaluated (factor= 1.000)


 Number of closed-shell orbitals:  42 (  20   9  10   3 )
 Number of active  orbitals:        1 (   0   0   0   1 )
 Number of external orbitals:     403 ( 165  97  96  45 )

 For full I/O caching in triples, increase memory by 239.37 Mwords to 1263.65 Mwords.

 Number of N-1 electron functions:              85
 Number of N-2 electron functions:            3570
 Number of singly external CSFs:             10588
 Number of doubly external CSFs:         112315657
 Total number of CSFs:                   112326245

 Molecular orbitals read from record     2101.2  Type=RHF/CANONICAL (state 1.4)

 Integral transformation finished. Total CPU:  52.67 sec, npass=  1  Memory used: 140.45 MW

 Starting RMP2 calculation

 Wavefunction is spin-projected

 ITER.      SQ.NORM     CORR.ENERGY   TOTAL ENERGY   ENERGY CHANGE        DEN1      VAR(S)    VAR(P)  DIIS     TIME
   1      1.34560692    -3.76382746-17905.48571794    -3.76382746    -0.00446620  0.33D-05  0.29D-02  1  1    73.81
   2      1.35286119    -3.76865000-17905.49054047    -0.00482253    -0.00003097  0.10D-07  0.27D-04  2  2   100.19
   3      1.35355415    -3.76895920-17905.49084967    -0.00030920    -0.00000011  0.35D-10  0.92D-07  3  3   121.75
   4      1.35357397    -3.76896316-17905.49085363    -0.00000396    -0.00000000  0.70D-12  0.39D-09  4  4   151.43
   5      1.35357429    -3.76896325-17905.49085373    -0.00000009    -0.00000000  0.16D-13  0.19D-11  5  5   169.83

 Norm of t1 vector:      0.02648770      S-energy:    -0.00245889      T1 diagnostic:  0.00003841
 Norm of t2 vector:      0.59403089      P-energy:    -3.76650436
                                         Alpha-Beta:  -2.45390662
                                         Alpha-Alpha: -0.66898682
                                         Beta-Beta:   -0.64361092

 Spin contamination <S**2-Sz**2-Sz>     0.00000000
  Reference energy                   -17901.7218904758    
  RHF-RMP2 correlation energy          -3.768963249916
 !RHF-RMP2 energy                    -17905.4908537257    
 (NB above energy spin projected)

 Starting RCCSD calculation

 ITER.      SQ.NORM     CORR.ENERGY   TOTAL ENERGY   ENERGY CHANGE        DEN1      VAR(S)    VAR(P)  DIIS     TIME
   1      1.24620544    -3.32337515-17905.04526563    -3.32337515    -0.16146685  0.24D-01  0.18D-01  0  0   510.06
   2      1.30118294    -3.47155940-17905.19344988    -0.14818425    -0.02415346  0.17D-02  0.74D-02  0  0   869.48
   3      1.30808646    -3.42463589-17905.14652637     0.04692351    -0.00682740  0.45D-02  0.12D-02  1  1  1266.33
   4      1.31963705    -3.44080225-17905.16269273    -0.01616636    -0.00081553  0.54D-03  0.26D-03  2  2  1660.11
   5      1.33365979    -3.44273816-17905.16462864    -0.00193591    -0.00044966  0.53D-03  0.67D-04  3  3  2018.69
   6      1.35997359    -3.44619694-17905.16808741    -0.00345877    -0.00008365  0.10D-03  0.13D-04  4  4  2352.80
   7      1.36938564    -3.44676285-17905.16865333    -0.00056592    -0.00004517  0.47D-04  0.91D-05  5  5  2704.49
   8      1.37882630    -3.44662791-17905.16851839     0.00013494    -0.00001107  0.92D-05  0.32D-05  6  6  3032.68
   9      1.38447318    -3.44687107-17905.16876155    -0.00024316    -0.00000323  0.26D-05  0.87D-06  6  3  3366.27
  10      1.38307476    -3.44669826-17905.16858873     0.00017282    -0.00000083  0.65D-06  0.23D-06  6  1  3730.48
  11      1.38391469    -3.44675533-17905.16864580    -0.00005707    -0.00000030  0.28D-06  0.68D-07  6  2  4061.31
  12      1.38399762    -3.44674113-17905.16863161     0.00001419    -0.00000010  0.71D-07  0.30D-07  6  5  4428.03
  13      1.38410591    -3.44674530-17905.16863577    -0.00000416    -0.00000004  0.31D-07  0.90D-08  6  4  4762.03
  14      1.38417835    -3.44674219-17905.16863267     0.00000311    -0.00000001  0.11D-07  0.36D-08  6  6  5111.45
  15      1.38417197    -3.44674332-17905.16863380    -0.00000113    -0.00000001  0.34D-08  0.18D-08  6  1  5478.38

 Norm of t1 vector:      0.29554584      S-energy:    -0.00264062      T1 diagnostic:  0.02239345
                                                                       D1 diagnostic:  0.18185662
 Norm of t2 vector:      0.54481614      P-energy:    -3.44410270
                                         Alpha-Beta:  -2.31140212
                                         Alpha-Alpha: -0.57615631
                                         Beta-Beta:   -0.55654427

 Singles amplitudes (print threshold =  0.500E-01):

         I         SYM. A    A   T(IA) [Alpha-Alpha]

        18         1         1      0.06593234
        20         1         1     -0.11759822
        20         1         2      0.05259825
 
         I         SYM. A    A   T(IA) [Beta-Beta]

        18         1         1      0.05542779
        20         1         1     -0.13613484
        20         1         2      0.05265034
        20         1         3     -0.05247766

 Doubles amplitudes (print threshold =  0.500E-01):

         I         J         SYM. A    SYM. B    A         B      T(IJ, AB) [Alpha-Beta]

        29        29         2         2         1         1     -0.15952854
        29        29         2         2         1         2      0.07684650
        29        29         2         2         2         1      0.07684650

 Spin contamination <S**2-Sz**2-Sz>     0.00000000

 For full I/O caching in triples, increase memory by 392.90 Mwords to 1417.18 Mwords.
 

  Correlated core orbitals:             1.1       2.1       3.1       4.1       5.1       6.1       7.1       8.1       9.1      10.1
                                       11.1      12.1      13.1      14.1      15.1      16.1       1.2       2.2       3.2       4.2
                                        5.2       6.2       7.2       8.2       1.3       2.3       3.3       4.3       5.3       6.3
                                        7.3       8.3       1.4       2.4       3.4
  Orbital energies:                 -2813.2147 -497.5117 -433.5504 -118.7983  -99.7055  -77.8957  -77.8865  -26.6434  -20.6193  -20.2451
                                      -12.1113  -12.0942   -4.2719   -3.0469   -3.0298   -2.5023 -433.5557  -99.7147  -77.8891  -20.2605
                                      -12.1009   -3.0469   -3.0475   -2.5326 -433.5533  -99.7060  -77.8888  -20.2439  -12.0982   -3.0500
                                       -3.0300   -2.5233  -77.8978  -12.1160   -3.0457
 
  RCCSD core-core energy               -2.552373446567
  RCCSD core-valence energy            -0.341710377373
  RCCSD valence correlation energy     -0.552659495343
 

 RESULTS
 =======

  Reference energy                   -17901.7218904758    
  RCCSD singles energy                 -0.002640618122
  RCCSD pair energy                    -3.444102701161
  RCCSD correlation energy             -3.446743319283
  Triples (T) contribution             -0.078954888490
  Total correlation energy             -3.525698207773
 
  RHF-RCCSD energy                   -17905.1686337951    
  RHF-RCCSD[T] energy                -17905.2586332138    
  RHF-RCCSD-T energy                 -17905.2466845292    
 !RHF-RCCSD(T) energy                -17905.2475886835    

 Program statistics:

 Available memory in ccsd:              1023984678
 Min. memory needed in ccsd:             306657742
 Max. memory used in ccsd:               453603010
 Max. memory used in cckext:             375781906 (15 integral passes)
 Max. memory used in cckint:             140449005 ( 1 integral passes)



 **********************************************************************************************************************************
 DATASETS  * FILE   NREC   LENGTH (MB)   RECORD NAMES
              1      23       23.93       500      610      700      900      950      970     1000      129      960     1700   
                                          VAR    BASINP    GEOM    SYMINP    ZMAT    AOBASIS   BASIS     P2S    ABASIS    OPER   
                                         1101     1401     1411     1412     1650     1100     1400     1410     1200     1210   
                                          SR      EKINR    POTR     PVPR    MOLCAS      S      EKIN      POT      H0       H01  
                                         1080     1600     1800   
                                         AOSYM     SMH     GRID   

              2       6        9.38       700     1000      520     1800     2100     2101   
                                         GEOM     BASIS   MCVARS    GRID      RKS      RHF  

 PROGRAMS   *        TOTAL  RCCSD(T)       RHF       RKS       INT
 CPU TIMES  *     14694.69  14493.43     10.15     13.63    177.14
 REAL TIME  *     17088.31 SEC
 DISK USED  *       168.11 GB      
 SF USED    *        29.40 GB      
 GA USED    *         0.24 MB       (max)       0.24 MB       (current)
 **********************************************************************************************************************************
 SETTING CCSD(1)        =    -17905.24758868  AU                              
 Output type csv         
                                                                                                                                                                                                                                                                

     Z,PBE  ,SCF  ,CCSD
   1.9,   -17907.53142,   -17901.72189,   -17905.24759
                                                  

 RCCSD(T)/USERDEF energy= -17905.247588683549

        RCCSD(T)        RHF-SCF         RKS-SCF 
 -17905.24758868 -17901.72189048 -17907.53142123
 **********************************************************************************************************************************
 Molpro calculation terminated
 Variable memory released
