
 Primary working directories    : /global/cscratch1/sd/gwang18
 Secondary working directories  : /global/cscratch1/sd/gwang18
 Wavefunction directory         : /global/homes/g/gwang18/wfu/
 Main file repository           : /global/cscratch1/sd/gwang18/

 SHA1      : 19cd028119e0e09f93f0674bd8af7968d9b3eff6
 NAME      : 2015.1.36
 ARCHNAME  : linux/x86_64
 FC        : /opt/cray/pe/craype/2.5.14/bin/ftn
 BLASLIB   : -L/opt/intel/compilers_and_libraries_2018.1.163/linux/mkl/lib/intel64 -Wl,-_start-group -lmkl_intel_ilp64 -lmkl_intel_thread -lmkl_core -Wl,-_end-group -liomp5
 id        : lbl

 Nodes     nprocs
 nid12837    15
 Number of processes for MPI-2 version of Molpro:   nprocs(total)=   16   nprocs(compute)=   15   nprocs(helper)=    1

 Using customized tuning parameters: mindgm=7; mindgv=16; mindgc=1; mindgr=1; noblas=0; minvec=7
 default implementation of scratch files=sf  

 ***,I
 memory,512,m
 
 gthresh,twoint=1.e-12
 gprint,basis,orbitals
 
 angstrom
 geometry={
 1                                                                               ! Number of atoms
 I 0.0 0.0 0.0
 }
 
 
 basis={
 Including file /global/u2/g/gwang18/projects/cc-so-ecp/i/basis/plot-check/cc-basis/ecp.molpro
 Including file /global/u2/g/gwang18/projects/cc-so-ecp/i/basis/plot-check/cc-basis/../../basis/I.cc-pV6Z.molpro
 }
 
 {rhf
  start,atden
  wf,7,5,1
  occ,1,1,1,0,1,0,0,0
  closed,1,1,1,0,0,0,0,0
  orbital,4202.2
 }
 pop
 {multi
  start,4202.2
  occ,1,1,1,0,1,0,0,0
  closed,1,0,0,0,0,0,0,0
  wf,7,2,1;state,1
  wf,7,3,1;state,1
  wf,7,5,1;state,1
  natorb,ci,print
  orbital,5202.2
 }
 {rhf,nitord=1,maxit=0
  start,5202.2
  wf,7,5,1
  occ,1,1,1,0,1,0,0,0
  closed,1,1,1,0,0,0,0,0
  print,orbitals=2
 }
 scf(1)=energy
 {uccsd(t);maxit,100;core}
 ccsd(1)=energy
 
 
 table,scf,ccsd
 save
 type,csv
 

 Variables initialized (889), CPU time= 0.00 sec
 Commands  initialized (702), CPU time= 0.02 sec, 572 directives.
 Default parameters read. Elapsed time= 0.13 sec

 Checking input...
 Passed
1


                                         ***  PROGRAM SYSTEM MOLPRO  ***
                                       Copyright, TTI GmbH Stuttgart, 2015
                                    Version 2015.1 linked Dec 29 2018 15:55:43


 **********************************************************************************************************************************
 LABEL *   I                                                                             
  64 bit mpp version                                                                     DATE: 16-Dec-21          TIME: 12:17:24  
 **********************************************************************************************************************************

 SHA1:             19cd028119e0e09f93f0674bd8af7968d9b3eff6
 **********************************************************************************************************************************

 THRESHOLDS:

 ZERO    =  1.00D-12  ONEINT  =  1.00D-12  TWOINT  =  1.00D-12  PREFAC  =  1.00D-14  LOCALI  =  1.00D-09  EORDER  =  1.00D-04
 ENERGY  =  0.00D+00  ETEST   =  0.00D+00  EDENS   =  0.00D+00  THRDEDEF=  1.00D-06  GRADIENT=  1.00D-02  STEP    =  1.00D-03
 ORBITAL =  1.00D-05  CIVEC   =  1.00D-05  COEFF   =  1.00D-04  PRINTCI =  5.00D-02  PUNCHCI =  9.90D+01  OPTGRAD =  3.00D-04
 OPTENERG=  1.00D-06  OPTSTEP =  3.00D-04  THRGRAD =  1.00D-10  COMPRESS=  1.00D-11  VARMIN  =  1.00D-07  VARMAX  =  1.00D-03
 THRDOUB =  0.00D+00  THRDIV  =  1.00D-05  THRRED  =  1.00D-07  THRPSP  =  1.00D+00  THRDC   =  1.00D-10  THRCS   =  1.00D-10
 THRNRM  =  1.00D-08  THREQ   =  0.00D+00  THRDE   =  1.00D+00  THRREF  =  1.00D-05  SPARFAC =  1.00D+00  THRDLP  =  1.00D-07
 THRDIA  =  1.00D-10  THRDLS  =  1.00D-07  THRGPS  =  0.00D+00  THRKEX  =  0.00D+00  THRDIS  =  2.00D-01  THRVAR  =  1.00D-10
 THRLOC  =  1.00D-06  THRGAP  =  1.00D-06  THRLOCT = -1.00D+00  THRGAPT = -1.00D+00  THRORB  =  1.00D-06  THRMLTP =  0.00D+00
 THRCPQCI=  1.00D-10  KEXTA   =  0.00D+00  THRCOARS=  0.00D+00  SYMTOL  =  1.00D-06  GRADTOL =  1.00D-06  THROVL  =  1.00D-08
 THRORTH =  1.00D-08  GRID    =  1.00D-06  GRIDMAX =  1.00D-03  DTMAX   =  0.00D+00  THROCCDE=  1.00D-01  THROCCDE=  1.00D-01



 ZUNIT=ANG
 

Geometry recognized as XYZ


 Variable memory set to  512000000 words,  buffer space   230000 words

 SETTING BASIS          =    USERDEF


 Recomputing integrals since basis changed


 Using spherical harmonics



 PROGRAM * SEWARD (Integral evaluation for generally contracted gaussian basis sets)     Author: Roland Lindh, 1990

 Geometry written to block  1 of record 700

 Orientation using atomic masses  
 Molecule type: Atom
 Symmetry elements: X,Y,Z
 Rotational constants:       0.0000000      0.0000000      0.0000000 GHz  (calculated with average atomic masses)

 Point group  D2h 



 ATOMIC COORDINATES

 NR  ATOM    CHARGE       X              Y              Z

   1  I       7.00    0.000000000    0.000000000    0.000000000


          I   CORE POTENTIAL

          f POTENTIAL

 POWERS             1              3              2              2
 EXPONENTIALS   12.00134       12.03588       3.022296      0.9779056    
 COEFFICIENTS   7.000000       84.00936      -3.998559      -3.050310    

          s - f POTENTIAL

 POWERS             2              2
 EXPONENTIALS   3.150276       1.008080    
 COEFFICIENTS   114.0238       1.974146    

          p - f POTENTIAL

 POWERS             2              2
 EXPONENTIALS   2.954190      0.7308215    
 COEFFICIENTS   111.4666       1.710240    

          d - f POTENTIAL

 POWERS             2              2
 EXPONENTIALS   2.604979      0.8995931    
 COEFFICIENTS   45.30084       8.704290    


 BASIS DATA

   Nr Sym  Nuc  Type         Exponents   Contraction coefficients

    1.1 Ag    1  1s          61.701593     0.000480
                             29.837151    -0.002928
                             14.428405     0.013931
                              6.977170    -0.077260
                              3.373963     0.362021
                              1.631553    -0.697646
                              0.788973    -0.135463
                              0.381525     0.575037
                              0.184495     0.592546
                              0.089216     0.182295
    2.1 Ag    1  1s           3.446673     1.000000
    3.1 Ag    1  1s           1.490463     1.000000
    4.1 Ag    1  1s           0.644529     1.000000
    5.1 Ag    1  1s           0.278717     1.000000
    6.1 Ag    1  1s           0.120527     1.000000
    7.1 Ag    1  3d0          1.301119     1.000000
    8.1 Ag    1  3d2+         1.301119     1.000000
    9.1 Ag    1  3d0          0.721787     1.000000
   10.1 Ag    1  3d2+         0.721787     1.000000
   11.1 Ag    1  3d0          0.400406     1.000000
   12.1 Ag    1  3d2+         0.400406     1.000000
   13.1 Ag    1  3d0          0.222123     1.000000
   14.1 Ag    1  3d2+         0.222123     1.000000
   15.1 Ag    1  3d0          0.123221     1.000000
   16.1 Ag    1  3d2+         0.123221     1.000000
   17.1 Ag    1  5g0          0.845075     1.000000
   18.1 Ag    1  5g4+         0.845075     1.000000
   19.1 Ag    1  5g2+         0.845075     1.000000
   20.1 Ag    1  5g0          0.474803     1.000000
   21.1 Ag    1  5g4+         0.474803     1.000000
   22.1 Ag    1  5g2+         0.474803     1.000000
   23.1 Ag    1  5g0          0.266767     1.000000
   24.1 Ag    1  5g4+         0.266767     1.000000
   25.1 Ag    1  5g2+         0.266767     1.000000
   26.1 Ag    1  7i6+         0.721144     1.000000
   27.1 Ag    1  7i4+         0.721144     1.000000
   28.1 Ag    1  7i2+         0.721144     1.000000
   29.1 Ag    1  7i0          0.721144     1.000000
    1.2 B3u   1  2px         33.795456    -0.000318
                             16.225632     0.002086
                              7.790134    -0.012949
                              3.740143     0.080672
                              1.795691    -0.242571
                              0.862134     0.014118
                              0.413922     0.351558
                              0.198729     0.473120
                              0.095412     0.278425
                              0.045809     0.052566
    2.2 B3u   1  2px          1.767751     1.000000
    3.2 B3u   1  2px          0.789764     1.000000
    4.2 B3u   1  2px          0.352837     1.000000
    5.2 B3u   1  2px          0.157634     1.000000
    6.2 B3u   1  2px          0.070425     1.000000
    7.2 B3u   1  4f1+         1.567984     1.000000
    8.2 B3u   1  4f3+         1.567984     1.000000
    9.2 B3u   1  4f1+         0.778746     1.000000
   10.2 B3u   1  4f3+         0.778746     1.000000
   11.2 B3u   1  4f1+         0.386768     1.000000
   12.2 B3u   1  4f3+         0.386768     1.000000
   13.2 B3u   1  4f1+         0.192090     1.000000
   14.2 B3u   1  4f3+         0.192090     1.000000
   15.2 B3u   1  6h1+         0.853572     1.000000
   16.2 B3u   1  6h3+         0.853572     1.000000
   17.2 B3u   1  6h5+         0.853572     1.000000
   18.2 B3u   1  6h1+         0.437555     1.000000
   19.2 B3u   1  6h3+         0.437555     1.000000
   20.2 B3u   1  6h5+         0.437555     1.000000
    1.3 B2u   1  2py         33.795456    -0.000318
                             16.225632     0.002086
                              7.790134    -0.012949
                              3.740143     0.080672
                              1.795691    -0.242571
                              0.862134     0.014118
                              0.413922     0.351558
                              0.198729     0.473120
                              0.095412     0.278425
                              0.045809     0.052566
    2.3 B2u   1  2py          1.767751     1.000000
    3.3 B2u   1  2py          0.789764     1.000000
    4.3 B2u   1  2py          0.352837     1.000000
    5.3 B2u   1  2py          0.157634     1.000000
    6.3 B2u   1  2py          0.070425     1.000000
    7.3 B2u   1  4f1-         1.567984     1.000000
    8.3 B2u   1  4f3-         1.567984     1.000000
    9.3 B2u   1  4f1-         0.778746     1.000000
   10.3 B2u   1  4f3-         0.778746     1.000000
   11.3 B2u   1  4f1-         0.386768     1.000000
   12.3 B2u   1  4f3-         0.386768     1.000000
   13.3 B2u   1  4f1-         0.192090     1.000000
   14.3 B2u   1  4f3-         0.192090     1.000000
   15.3 B2u   1  6h1-         0.853572     1.000000
   16.3 B2u   1  6h3-         0.853572     1.000000
   17.3 B2u   1  6h5-         0.853572     1.000000
   18.3 B2u   1  6h1-         0.437555     1.000000
   19.3 B2u   1  6h3-         0.437555     1.000000
   20.3 B2u   1  6h5-         0.437555     1.000000
    1.4 B1g   1  3d2-         1.301119     1.000000
    2.4 B1g   1  3d2-         0.721787     1.000000
    3.4 B1g   1  3d2-         0.400406     1.000000
    4.4 B1g   1  3d2-         0.222123     1.000000
    5.4 B1g   1  3d2-         0.123221     1.000000
    6.4 B1g   1  5g2-         0.845075     1.000000
    7.4 B1g   1  5g4-         0.845075     1.000000
    8.4 B1g   1  5g2-         0.474803     1.000000
    9.4 B1g   1  5g4-         0.474803     1.000000
   10.4 B1g   1  5g2-         0.266767     1.000000
   11.4 B1g   1  5g4-         0.266767     1.000000
   12.4 B1g   1  7i2-         0.721144     1.000000
   13.4 B1g   1  7i6-         0.721144     1.000000
   14.4 B1g   1  7i4-         0.721144     1.000000
    1.5 B1u   1  2pz         33.795456    -0.000318
                             16.225632     0.002086
                              7.790134    -0.012949
                              3.740143     0.080672
                              1.795691    -0.242571
                              0.862134     0.014118
                              0.413922     0.351558
                              0.198729     0.473120
                              0.095412     0.278425
                              0.045809     0.052566
    2.5 B1u   1  2pz          1.767751     1.000000
    3.5 B1u   1  2pz          0.789764     1.000000
    4.5 B1u   1  2pz          0.352837     1.000000
    5.5 B1u   1  2pz          0.157634     1.000000
    6.5 B1u   1  2pz          0.070425     1.000000
    7.5 B1u   1  4f0          1.567984     1.000000
    8.5 B1u   1  4f2+         1.567984     1.000000
    9.5 B1u   1  4f0          0.778746     1.000000
   10.5 B1u   1  4f2+         0.778746     1.000000
   11.5 B1u   1  4f0          0.386768     1.000000
   12.5 B1u   1  4f2+         0.386768     1.000000
   13.5 B1u   1  4f0          0.192090     1.000000
   14.5 B1u   1  4f2+         0.192090     1.000000
   15.5 B1u   1  6h2+         0.853572     1.000000
   16.5 B1u   1  6h4+         0.853572     1.000000
   17.5 B1u   1  6h0          0.853572     1.000000
   18.5 B1u   1  6h2+         0.437555     1.000000
   19.5 B1u   1  6h4+         0.437555     1.000000
   20.5 B1u   1  6h0          0.437555     1.000000
    1.6 B2g   1  3d1+         1.301119     1.000000
    2.6 B2g   1  3d1+         0.721787     1.000000
    3.6 B2g   1  3d1+         0.400406     1.000000
    4.6 B2g   1  3d1+         0.222123     1.000000
    5.6 B2g   1  3d1+         0.123221     1.000000
    6.6 B2g   1  5g1+         0.845075     1.000000
    7.6 B2g   1  5g3+         0.845075     1.000000
    8.6 B2g   1  5g1+         0.474803     1.000000
    9.6 B2g   1  5g3+         0.474803     1.000000
   10.6 B2g   1  5g1+         0.266767     1.000000
   11.6 B2g   1  5g3+         0.266767     1.000000
   12.6 B2g   1  7i5+         0.721144     1.000000
   13.6 B2g   1  7i3+         0.721144     1.000000
   14.6 B2g   1  7i1+         0.721144     1.000000
    1.7 B3g   1  3d1-         1.301119     1.000000
    2.7 B3g   1  3d1-         0.721787     1.000000
    3.7 B3g   1  3d1-         0.400406     1.000000
    4.7 B3g   1  3d1-         0.222123     1.000000
    5.7 B3g   1  3d1-         0.123221     1.000000
    6.7 B3g   1  5g1-         0.845075     1.000000
    7.7 B3g   1  5g3-         0.845075     1.000000
    8.7 B3g   1  5g1-         0.474803     1.000000
    9.7 B3g   1  5g3-         0.474803     1.000000
   10.7 B3g   1  5g1-         0.266767     1.000000
   11.7 B3g   1  5g3-         0.266767     1.000000
   12.7 B3g   1  7i5-         0.721144     1.000000
   13.7 B3g   1  7i3-         0.721144     1.000000
   14.7 B3g   1  7i1-         0.721144     1.000000
    1.8 Au    1  4f2-         1.567984     1.000000
    2.8 Au    1  4f2-         0.778746     1.000000
    3.8 Au    1  4f2-         0.386768     1.000000
    4.8 Au    1  4f2-         0.192090     1.000000
    5.8 Au    1  6h4-         0.853572     1.000000
    6.8 Au    1  6h2-         0.853572     1.000000
    7.8 Au    1  6h4-         0.437555     1.000000
    8.8 Au    1  6h2-         0.437555     1.000000

 NUCLEAR CHARGE:                    7
 NUMBER OF PRIMITIVE AOS:         245
 NUMBER OF SYMMETRY AOS:          175
 NUMBER OF CONTRACTIONS:          139   (  29Ag  +  20B3u +  20B2u +  14B1g +  20B1u +  14B2g +  14B3g +   8Au  )
 NUMBER OF CORE ORBITALS:           0   (   0Ag  +   0B3u +   0B2u +   0B1g +   0B1u +   0B2g +   0B3g +   0Au  )
 NUMBER OF VALENCE ORBITALS:        4   (   1Ag  +   1B3u +   1B2u +   0B1g +   1B1u +   0B2g +   0B3g +   0Au  )


 NUCLEAR REPULSION ENERGY    0.00000000

 EXTRA SYMMETRY OF AOS IN SYMMETRY 1:   1 1 1 1 1 1 2 3 2 3   2 3 2 3 2 3 4 5 6 4   5 6 4 5 6 7 8 910
 EXTRA SYMMETRY OF AOS IN SYMMETRY 2:   1 1 1 1 1 1 2 3 2 3   2 3 2 3 4 5 6 4 5 6
 EXTRA SYMMETRY OF AOS IN SYMMETRY 3:   1 1 1 1 1 1 2 3 2 3   2 3 2 3 4 5 6 4 5 6
 EXTRA SYMMETRY OF AOS IN SYMMETRY 4:   1 1 1 1 1 2 3 2 3 2   3 4 5 6
 EXTRA SYMMETRY OF AOS IN SYMMETRY 5:   1 1 1 1 1 1 2 3 2 3   2 3 2 3 4 5 6 4 5 6
 EXTRA SYMMETRY OF AOS IN SYMMETRY 6:   1 1 1 1 1 2 3 2 3 2   3 4 5 6
 EXTRA SYMMETRY OF AOS IN SYMMETRY 7:   1 1 1 1 1 2 3 2 3 2   3 4 5 6
 EXTRA SYMMETRY OF AOS IN SYMMETRY 8:   1 1 1 1 2 3 2 3

 Eigenvalues of metric

         1 0.797E-04 0.481E-02 0.481E-02 0.555E-02 0.473E-01 0.473E-01 0.569E-01 0.618E-01
         2 0.315E-03 0.140E-01 0.424E-01 0.424E-01 0.873E-01 0.273E+00 0.273E+00 0.300E+00
         3 0.315E-03 0.140E-01 0.424E-01 0.424E-01 0.873E-01 0.273E+00 0.273E+00 0.300E+00
         4 0.481E-02 0.473E-01 0.618E-01 0.618E-01 0.293E+00 0.580E+00 0.580E+00 0.100E+01
         5 0.315E-03 0.140E-01 0.424E-01 0.424E-01 0.873E-01 0.273E+00 0.273E+00 0.300E+00
         6 0.481E-02 0.473E-01 0.618E-01 0.618E-01 0.293E+00 0.580E+00 0.580E+00 0.100E+01
         7 0.481E-02 0.473E-01 0.618E-01 0.618E-01 0.293E+00 0.580E+00 0.580E+00 0.100E+01
         8 0.424E-01 0.273E+00 0.300E+00 0.300E+00 0.107E+01 0.170E+01 0.170E+01 0.261E+01


 Contracted 2-electron integrals neglected if value below      1.0D-12
 AO integral compression algorithm  1   Integral accuracy      1.0D-12

     44.302 MB (compressed) written to integral file ( 59.9%)

     Node minimum: 1.311 MB, node maximum: 4.194 MB


 NUMBER OF SORTED TWO-ELECTRON INTEGRALS:     415365.     BUFFER LENGTH:  32768
 NUMBER OF SEGMENTS:   1  SEGMENT LENGTH:     415365      RECORD LENGTH: 524288

 Memory used in sort:       0.97 MW

 SORT1 READ     9405658. AND WROTE      268948. INTEGRALS IN      1 RECORDS. CPU TIME:     0.29 SEC, REAL TIME:     0.33 SEC
 SORT2 READ     4069250. AND WROTE     6117204. INTEGRALS IN    225 RECORDS. CPU TIME:     0.01 SEC, REAL TIME:     0.05 SEC

 Node minimum:      397159.  Node maximum:      416277. integrals

 OPERATOR DM      FOR CENTER  0  COORDINATES:    0.000000    0.000000    0.000000


 **********************************************************************************************************************************
 DATASETS  * FILE   NREC   LENGTH (MB)   RECORD NAMES
              1      19       20.04       500      610      700      900      950      970     1000      129      960     1100   
                                          VAR    BASINP    GEOM    SYMINP    ZMAT    AOBASIS   BASIS     P2S    ABASIS      S 
                                         1400     1410     1420     1200     1210     1080     1600     1650     1700   
                                           T        V       ECP      H0       H01     AOSYM     SMH    MOLCAS    OPER   

 PROGRAMS   *        TOTAL       INT
 CPU TIMES  *         1.50      1.09
 REAL TIME  *         2.53 SEC
 DISK USED  *        95.28 MB      
 GA USED    *         0.00 MB       (max)       0.00 MB       (current)
 **********************************************************************************************************************************


 PROGRAM * RHF-SCF (OPEN SHELL)       Authors: W. Meyer, H.-J. Werner


 NUMBER OF ELECTRONS:       4+    3-    SPACE SYMMETRY=5    SPIN SYMMETRY: Doublet 
 CONVERGENCE THRESHOLDS:    1.00E-05 (Density)    1.00E-07 (Energy)
 MAX. NUMBER OF ITERATIONS:       60
 INTERPOLATION TYPE:            DIIS
 INTERPOLATION STEPS:              2 (START)      1 (STEP)
 LEVEL SHIFTS:                 -0.60 (CLOSED) -0.30 (OPEN) 

 Number of closed-shell orbitals:    3 (   1   1   1   0   0   0   0   0 )
 Number of open-shell orbitals:      1 (   0   0   0   0   1   0   0   0 )



   Atom=I  basis=ECP46MDF_GUESS    lmin=0  lmax=1

 Orbital guess generated from atomic densities. Full valence occupancy:    1   1   1   0   1   0   0   0


 Molecular orbital dump at record        4202.2

 ITERATION    DDIFF          GRAD             ENERGY        2-EL.EN.            DIPOLE MOMENTS         DIIS   ORB.
    1      0.000D+00      0.000D+00       -11.21416199     14.766678    0.00000    0.00000    0.00000    0    start
    2      0.000D+00      0.382D-02       -11.21667744     14.834194    0.00000    0.00000    0.00000    1    diag,B
    3      0.428D-02      0.131D-02       -11.21716979     14.868121    0.00000    0.00000    0.00000    2    diag,B
    4      0.114D-02      0.337D-03       -11.21720839     14.875942    0.00000    0.00000    0.00000    3    diag,B
    5      0.583D-03      0.803D-04       -11.21721045     14.877010    0.00000    0.00000    0.00000    4    diag,B
    6      0.180D-03      0.128D-04       -11.21721050     14.877269    0.00000    0.00000    0.00000    5    diag,B
    7      0.312D-04      0.252D-05       -11.21721050     14.877317    0.00000    0.00000    0.00000    6    fixocc
    8      0.382D-05      0.432D-06       -11.21721050     14.877320    0.00000    0.00000    0.00000    0    orth

 Final alpha occupancy:   1   1   1   0   1   0   0   0
 Final beta  occupancy:   1   1   1   0   0   0   0   0

 !RHF STATE 1.5 Energy                -11.217210501605
 Nuclear energy                         0.00000000
 One-electron energy                  -18.65587074
 Two-electron energy                    7.43866024
 Virial quotient                       -3.15769719
 !RHF STATE 1.5 Dipole moment           0.00000000     0.00000000     0.00000000
 Dipole moment /Debye                   0.00000000     0.00000000     0.00000000

 ELECTRON ORBITALS
 =================


   Orb  Occ    Energy  Couls-En    Coefficients

                                   1 1s      1 1s      1 1s      1 1s      1 1s      1 1s      1 3d0     1 3d2+    1 3d0     1 3d2+ 
                                   1 3d0     1 3d2+    1 3d0     1 3d2+    1 3d0     1 3d2+    1 5g0     1 5g4+    1 5g2+    1 5g0  
                                   1 5g4+    1 5g2+    1 5g0     1 5g4+    1 5g2+    1 7i6+    1 7i4+    1 7i2+    1 7i0  

   1.1   2    -0.8797   -3.9595  1.000119 -0.000070  0.000321 -0.000638  0.000794 -0.000577 -0.000168  0.000000  0.000516 -0.000000
                                 0.000280  0.000000 -0.001032 -0.000000 -0.005727  0.000000  0.000006  0.000000 -0.000000  0.000027
                                -0.000000  0.000000 -0.000030  0.000000 -0.000000 -0.000000 -0.000000 -0.000000  0.000003

                                   1 2px     1 2px     1 2px     1 2px     1 2px     1 2px     1 4f1+    1 4f3+    1 4f1+    1 4f3+ 
                                   1 4f1+    1 4f3+    1 4f1+    1 4f3+    1 6h1+    1 6h3+    1 6h5+    1 6h1+    1 6h3+    1 6h5+ 


   1.2   2    -0.3912   -2.8860  0.995730 -0.000181  0.001125 -0.002238 -0.002638  0.010304  0.000646  0.000000  0.002317 -0.000000
                                 0.004502  0.000000  0.005849  0.000000  0.000009  0.000000 -0.000000  0.000072 -0.000000  0.000000

                                   1 2py     1 2py     1 2py     1 2py     1 2py     1 2py     1 4f1-    1 4f3-    1 4f1-    1 4f3- 
                                   1 4f1-    1 4f3-    1 4f1-    1 4f3-    1 6h1-    1 6h3-    1 6h5-    1 6h1-    1 6h3-    1 6h5- 


   1.3   2    -0.3912   -2.8860  0.995730 -0.000181  0.001125 -0.002238 -0.002638  0.010304  0.000646 -0.000000  0.002317  0.000000
                                 0.004502 -0.000000  0.005849 -0.000000  0.000009 -0.000000 -0.000000  0.000072  0.000000  0.000000

                                   1 2pz     1 2pz     1 2pz     1 2pz     1 2pz     1 2pz     1 4f0     1 4f2+    1 4f0     1 4f2+ 
                                   1 4f0     1 4f2+    1 4f0     1 4f2+    1 6h2+    1 6h4+    1 6h0     1 6h2+    1 6h4+    1 6h0  


   1.5   +    -0.4545   -2.9715  1.014958  0.000879 -0.006409  0.013938  0.007620 -0.040751  0.001874 -0.000000  0.006570  0.000000
                                 0.013910 -0.000000  0.014930 -0.000000  0.000000 -0.000000  0.000097 -0.000000 -0.000000  0.000501

 HOMO      1.2    -0.391163 =     -10.6441eV
 LUMO      2.5     0.203060 =       5.5256eV
 LUMO-HOMO         0.594223 =      16.1696eV


 **********************************************************************************************************************************
 DATASETS  * FILE   NREC   LENGTH (MB)   RECORD NAMES
              1      19       20.04       500      610      700      900      950      970     1000      129      960     1100   
                                          VAR    BASINP    GEOM    SYMINP    ZMAT    AOBASIS   BASIS     P2S    ABASIS      S 
                                         1400     1410     1420     1200     1210     1080     1600     1650     1700   
                                           T        V       ECP      H0       H01     AOSYM     SMH    MOLCAS    OPER   

              2       4        2.85       700     1000      520     4202   
                                         GEOM     BASIS   MCVARS     RHF  

 PROGRAMS   *        TOTAL       RHF       INT
 CPU TIMES  *         1.61      0.11      1.09
 REAL TIME  *         2.73 SEC
 DISK USED  *       444.82 MB      
 SF USED    *         0.01 MB      
 GA USED    *         0.00 MB       (max)       0.00 MB       (current)
 **********************************************************************************************************************************


 PROGRAM * POP (Mulliken population analysis)

 
 Density matrix read from record         4202.2  Type=RHF/CHARGE (state 1.5)
 
 Population analysis by basis function type

 Unique atom        s        p        d        f        g    Total    Charge
   1  I       1.99992  4.99844  0.00008  0.00156  0.00000  7.00000  + 0.00000


 **********************************************************************************************************************************
 DATASETS  * FILE   NREC   LENGTH (MB)   RECORD NAMES
              1      19       20.04       500      610      700      900      950      970     1000      129      960     1100   
                                          VAR    BASINP    GEOM    SYMINP    ZMAT    AOBASIS   BASIS     P2S    ABASIS      S 
                                         1400     1410     1420     1200     1210     1080     1600     1650     1700   
                                           T        V       ECP      H0       H01     AOSYM     SMH    MOLCAS    OPER   

              2       4        2.85       700     1000      520     4202   
                                         GEOM     BASIS   MCVARS     RHF  

 PROGRAMS   *        TOTAL       POP       RHF       INT
 CPU TIMES  *         1.62      0.01      0.11      1.09
 REAL TIME  *         2.74 SEC
 DISK USED  *       444.82 MB      
 SF USED    *         0.01 MB      
 GA USED    *         0.00 MB       (max)       0.00 MB       (current)
 **********************************************************************************************************************************


 PROGRAM * MULTI (Direct Multiconfiguration SCF)       Authors: P.J. Knowles, H.-J. Werner (1984)     S.T. Elbert (1988)


 Number of closed-shell orbitals:   1 (   1   0   0   0   0   0   0   0 )
 Number of active  orbitals:        3 (   0   1   1   0   1   0   0   0 )
 Number of external orbitals:     135 (  28  19  19  14  19  14  14   8 )

 State symmetry 1

 Number of electrons:     5    Spin symmetry=Doublet   Space symmetry=2
 Number of states:        1
 Number of CSFs:          1   (1 determinants, 3 intermediate states)

 State symmetry 2

 Number of electrons:     5    Spin symmetry=Doublet   Space symmetry=3
 Number of states:        1
 Number of CSFs:          1   (1 determinants, 3 intermediate states)

 State symmetry 3

 Number of electrons:     5    Spin symmetry=Doublet   Space symmetry=5
 Number of states:        1
 Number of CSFs:          1   (1 determinants, 3 intermediate states)

 Molecular orbitals read from record     4202.2  Type=RHF/CANONICAL (state 1.5)
 *** IN SYMMETRY 1 ORBITAL  1 SYMMETRY CONTAMINATION OF 0.771D-02 HAS BEEN REMOVED

 EXTRA SYMMETRY OF MOS IN SYMMETRY 1:   1 2 3 1 2 3 4 6 5 2   3 1 4 6 5 2 3 4 6 5  10 9 8 7 1 2 3 1 1
 *** IN SYMMETRY 2 ORBITAL  1 SYMMETRY CONTAMINATION OF 0.131D-01 HAS BEEN REMOVED
 EXTRA SYMMETRY OF MOS IN SYMMETRY 2:   1 1 2 3 1 2 3 4 5 6   2 3 1 4 5 6 2 3 1 1
 *** IN SYMMETRY 3 ORBITAL  1 SYMMETRY CONTAMINATION OF 0.131D-01 HAS BEEN REMOVED
 EXTRA SYMMETRY OF MOS IN SYMMETRY 3:   1 1 2 3 1 2 3 4 5 6   2 3 1 4 5 6 2 3 1 1
 EXTRA SYMMETRY OF MOS IN SYMMETRY 4:   1 1 2 3 1 2 3 1 2 3   4 6 5 1
 *** IN SYMMETRY 5 ORBITAL  1 SYMMETRY CONTAMINATION OF 0.338D-01 HAS BEEN REMOVED
 EXTRA SYMMETRY OF MOS IN SYMMETRY 5:   1 1 2 3 1 2 3 6 4 5   2 3 1 6 4 5 2 3 1 1
 EXTRA SYMMETRY OF MOS IN SYMMETRY 6:   1 1 2 3 1 2 3 1 2 3   6 5 4 1
 EXTRA SYMMETRY OF MOS IN SYMMETRY 7:   1 1 2 3 1 2 3 1 2 3   6 5 4 1
 EXTRA SYMMETRY OF MOS IN SYMMETRY 8:   1 1 3 2 1 3 2 1

 Wavefunction dump at record             5202.2

 Convergence thresholds  0.10E-01 (gradient)  0.10E-05 (energy)  0.10E-02 (step length)

 Weight factors for state symmetry  1:    0.33333
 Weight factors for state symmetry  2:    0.33333
 Weight factors for state symmetry  3:    0.33333

 Number of orbital rotations:       85   (     0 Core/Active     28 Core/Virtual   0 Active/Active     57 Active/Virtual)
 Total number of variables:         88


 ITER. MIC  NCI  NEG     ENERGY(VAR)     ENERGY(PROJ)   ENERGY CHANGE     GRAD(0)  GRAD(ORB)   GRAD(CI)     STEP       TIME

   1   21   12    0     -11.21448336     -11.21512143   -0.00063806    0.02500015 0.00000000 0.00000000  0.29D-01      0.04
   2   12   12    0     -11.21512160     -11.21512160   -0.00000000    0.00006863 0.00000000 0.00000000  0.53D-04      0.07

 ** WVFN ****  CONVERGENCE REACHED, FINAL GRADIENT:  0.10D-08



 Results for state 1.2
 =====================

 !MCSCF STATE 1.2 Energy              -11.215121604137
 Nuclear energy                         0.00000000
 Kinetic energy                         3.54954058
 One electron energy                  -18.65725130
 Two electron energy                    7.44212970
 Virial ratio                           4.15959808

 !MCSCF STATE 1.2 Dipole moment         0.00000000     0.00000000     0.00000000
 Dipole moment /Debye                   0.00000000     0.00000000     0.00000000



 Results for state 1.3
 =====================

 !MCSCF STATE 1.3 Energy              -11.215121604137
 Nuclear energy                         0.00000000
 Kinetic energy                         3.54954058
 One electron energy                  -18.65725130
 Two electron energy                    7.44212970
 Virial ratio                           4.15959808

 !MCSCF STATE 1.3 Dipole moment         0.00000000     0.00000000     0.00000000
 Dipole moment /Debye                   0.00000000     0.00000000     0.00000000



 Results for state 1.5
 =====================

 !MCSCF STATE 1.5 Energy              -11.215121604139
 Nuclear energy                         0.00000000
 Kinetic energy                         3.54954058
 One electron energy                  -18.65725130
 Two electron energy                    7.44212970
 Virial ratio                           4.15959808

 !MCSCF STATE 1.5 Dipole moment         0.00000000     0.00000000     0.00000000
 Dipole moment /Debye                   0.00000000     0.00000000     0.00000000

 State-averaged charge density matrix saved on record  5202.2 (density set 1)


 NATURAL ORBITALS (state averaged)
 =================================

   Orb     Occ        Energy       Coefficients

                                   1 1s      1 1s      1 1s      1 1s      1 1s      1 1s      1 3d0     1 3d2+    1 3d0     1 3d2+ 
                                   1 3d0     1 3d2+    1 3d0     1 3d2+    1 3d0     1 3d2+    1 5g0     1 5g4+    1 5g2+    1 5g0  
                                   1 5g4+    1 5g2+    1 5g0     1 5g4+    1 5g2+    1 7i6+    1 7i4+    1 7i2+    1 7i0  

   1.1  2.00000    -0.879795     1.000147 -0.000071  0.000311 -0.000536  0.000571 -0.000436  0.000000  0.000000  0.000000  0.000000
                                 0.000000  0.000000  0.000000  0.000000  0.000000  0.000000  0.000000  0.000000  0.000000  0.000000
                                 0.000000  0.000000  0.000000  0.000000  0.000000  0.000000  0.000000  0.000000  0.000000

                                   1 2px     1 2px     1 2px     1 2px     1 2px     1 2px     1 4f1+    1 4f3+    1 4f1+    1 4f3+ 
                                   1 4f1+    1 4f3+    1 4f1+    1 4f3+    1 6h1+    1 6h3+    1 6h5+    1 6h1+    1 6h3+    1 6h5+ 


   1.2  1.66667    -0.344596     0.999786  0.000001 -0.000104  0.000265 -0.000071  0.000134  0.000000  0.000000  0.000000  0.000000
                                 0.000000  0.000000  0.000000  0.000000  0.000000  0.000000  0.000000  0.000000  0.000000  0.000000

                                   1 2py     1 2py     1 2py     1 2py     1 2py     1 2py     1 4f1-    1 4f3-    1 4f1-    1 4f3- 
                                   1 4f1-    1 4f3-    1 4f1-    1 4f3-    1 6h1-    1 6h3-    1 6h5-    1 6h1-    1 6h3-    1 6h5- 


   1.3  1.66667    -0.344596     0.999786  0.000001 -0.000104  0.000265 -0.000071  0.000134  0.000000  0.000000  0.000000  0.000000
                                 0.000000  0.000000  0.000000  0.000000  0.000000  0.000000  0.000000  0.000000  0.000000  0.000000

                                   1 2pz     1 2pz     1 2pz     1 2pz     1 2pz     1 2pz     1 4f0     1 4f2+    1 4f0     1 4f2+ 
                                   1 4f0     1 4f2+    1 4f0     1 4f2+    1 6h2+    1 6h4+    1 6h0     1 6h2+    1 6h4+    1 6h0  


   1.5  1.66667    -0.344596     0.999786  0.000001 -0.000104  0.000265 -0.000071  0.000134  0.000000  0.000000  0.000000  0.000000
                                 0.000000  0.000000  0.000000  0.000000  0.000000  0.000000  0.000000  0.000000  0.000000  0.000000
 

 EXTRA SYMMETRY OF MOS IN SYMMETRY 1:   1 3 2 1 2 3 4 6 5 2   3 1 6 4 5 2 3 6 4 5   8 7 910 1 2 3 1 1
 EXTRA SYMMETRY OF MOS IN SYMMETRY 2:   1 1 2 3 1 2 3 5 6 4   3 2 1 6 5 4 2 3 1 1
 EXTRA SYMMETRY OF MOS IN SYMMETRY 3:   1 1 2 3 1 2 3 5 6 4   3 2 1 6 5 4 2 3 1 1
 EXTRA SYMMETRY OF MOS IN SYMMETRY 4:   1 1 2 3 1 2 3 1 2 3   6 5 4 1
 EXTRA SYMMETRY OF MOS IN SYMMETRY 5:   1 1 2 3 1 3 2 6 4 5   3 2 1 5 4 6 3 2 1 1
 EXTRA SYMMETRY OF MOS IN SYMMETRY 6:   1 1 2 3 1 3 2 1 3 2   4 5 6 1
 EXTRA SYMMETRY OF MOS IN SYMMETRY 7:   1 1 2 3 1 3 2 1 3 2   4 5 6 1
 EXTRA SYMMETRY OF MOS IN SYMMETRY 8:   1 1 3 2 1 2 3 1

 Natural orbital dump (state averaged) at molpro section  5202.2    (Orbital set 2)


 CI vector for state symmetry 1
 ==============================

 a 2 2           1.0000000

 TOTAL ENERGIES                       -11.21512160

 CI vector for state symmetry 2
 ==============================

 2 a 2           1.0000000

 TOTAL ENERGIES                       -11.21512160

 CI vector for state symmetry 3
 ==============================

 2 2 a           1.0000000

 TOTAL ENERGIES                       -11.21512160



 **********************************************************************************************************************************
 DATASETS  * FILE   NREC   LENGTH (MB)   RECORD NAMES
              1      20       20.39       500      610      700      900      950      970     1000      129      960     1100   
                                          VAR    BASINP    GEOM    SYMINP    ZMAT    AOBASIS   BASIS     P2S    ABASIS      S 
                                         1400     1410     1420     1200     1210     1080     1600     1650     1700     1380   
                                           T        V       ECP      H0       H01     AOSYM     SMH    MOLCAS    OPER     JKOP   

              2       5        5.45       700     1000      520     4202     5202   
                                         GEOM     BASIS   MCVARS     RHF     MCSCF   

 PROGRAMS   *        TOTAL     MULTI       POP       RHF       INT
 CPU TIMES  *         1.78      0.15      0.01      0.11      1.09
 REAL TIME  *         3.64 SEC
 DISK USED  *       444.82 MB      
 SF USED    *        10.31 MB      
 GA USED    *         0.00 MB       (max)       0.00 MB       (current)
 **********************************************************************************************************************************


 PROGRAM * RHF-SCF (OPEN SHELL)       Authors: W. Meyer, H.-J. Werner


 NUMBER OF ELECTRONS:       4+    3-    SPACE SYMMETRY=5    SPIN SYMMETRY: Doublet 
 CONVERGENCE THRESHOLDS:    1.00E-05 (Density)    1.00E-07 (Energy)
 MAX. NUMBER OF ITERATIONS:        0
 INTERPOLATION TYPE:            DIIS
 INTERPOLATION STEPS:              2 (START)      1 (STEP)
 LEVEL SHIFTS:                 -0.60 (CLOSED) -0.30 (OPEN) 

 Number of closed-shell orbitals:    3 (   1   1   1   0   0   0   0   0 )
 Number of open-shell orbitals:      1 (   0   0   0   0   1   0   0   0 )


 Molecular orbitals read from record     5202.2  Type=MCSCF/NATURAL (state averaged)

 Molecular orbital dump at record        2101.2

 ITERATION    DDIFF          GRAD             ENERGY        2-EL.EN.            DIPOLE MOMENTS         DIIS   ORB.
    1      0.000D+00      0.000D+00       -11.21512160     14.884259    0.00000    0.00000    0.00000    0    start

 Final alpha occupancy:   1   1   1   0   1   0   0   0
 Final beta  occupancy:   1   1   1   0   0   0   0   0

 !RHF STATE 1.5 Energy                -11.215121604139
 Nuclear energy                         0.00000000
 One-electron energy                  -18.65725130
 Two-electron energy                    7.44212970
 Virial quotient                       -3.15959808
 !RHF STATE 1.5 Dipole moment           0.00000000     0.00000000     0.00000000
 Dipole moment /Debye                   0.00000000     0.00000000     0.00000000

 ELECTRON ORBITALS
 =================


   Orb  Occ    Energy  Couls-En    Coefficients

                                   1 1s      1 1s      1 1s      1 1s      1 1s      1 1s      1 3d0     1 3d2+    1 3d0     1 3d2+ 
                                   1 3d0     1 3d2+    1 3d0     1 3d2+    1 3d0     1 3d2+    1 5g0     1 5g4+    1 5g2+    1 5g0  
                                   1 5g4+    1 5g2+    1 5g0     1 5g4+    1 5g2+    1 7i6+    1 7i4+    1 7i2+    1 7i0  

   1.1   2    -0.8798   -3.9596  1.000147 -0.000071  0.000311 -0.000536  0.000571 -0.000436  0.000000  0.000000  0.000000  0.000000
                                 0.000000  0.000000  0.000000  0.000000  0.000000  0.000000  0.000000  0.000000  0.000000  0.000000
                                 0.000000  0.000000  0.000000  0.000000  0.000000  0.000000  0.000000  0.000000  0.000000

   2.1   0     0.2507   -1.2496  0.000000  0.000000  0.000000  0.000000  0.000000  0.000000  0.000000  0.038216  0.000000 -0.271911
                                 0.000000  0.746061  0.000000 -1.116435  0.000000  1.593981  0.000000  0.000000  0.000000  0.000000
                                 0.000000  0.000000  0.000000  0.000000  0.000000  0.000000  0.000000  0.000000  0.000000

   3.1   0     0.2507   -1.2496  0.000000  0.000000  0.000000  0.000000  0.000000  0.000000  0.038216  0.000000 -0.271911  0.000000
                                 0.746061  0.000000 -1.116435  0.000000  1.593981  0.000000  0.000000  0.000000  0.000000  0.000000
                                 0.000000  0.000000  0.000000  0.000000  0.000000  0.000000  0.000000  0.000000  0.000000

                                   1 2px     1 2px     1 2px     1 2px     1 2px     1 2px     1 4f1+    1 4f3+    1 4f1+    1 4f3+ 
                                   1 4f1+    1 4f3+    1 4f1+    1 4f3+    1 6h1+    1 6h3+    1 6h5+    1 6h1+    1 6h3+    1 6h5+ 


   1.2   2    -0.3446   -2.8441  0.999786  0.000001 -0.000104  0.000265 -0.000071  0.000134  0.000000  0.000000  0.000000  0.000000
                                 0.000000  0.000000  0.000000  0.000000  0.000000  0.000000  0.000000  0.000000  0.000000  0.000000

   2.2   0     0.2189   -1.0444 -0.797669  0.013983 -0.234243  0.752656 -1.386492  2.042303  0.000000  0.000000  0.000000  0.000000
                                 0.000000  0.000000  0.000000  0.000000  0.000000  0.000000  0.000000  0.000000  0.000000  0.000000

   3.2   0     0.6348   -0.7046  0.000000  0.000000  0.000000  0.000000  0.000000  0.000000 -0.024912  0.000000  0.266417  0.000000
                                -0.452588  0.000000  1.239251  0.000000  0.000000  0.000000  0.000000  0.000000  0.000000  0.000000

                                   1 2py     1 2py     1 2py     1 2py     1 2py     1 2py     1 4f1-    1 4f3-    1 4f1-    1 4f3- 
                                   1 4f1-    1 4f3-    1 4f1-    1 4f3-    1 6h1-    1 6h3-    1 6h5-    1 6h1-    1 6h3-    1 6h5- 


   1.3   2    -0.3446   -2.8441  0.999786  0.000001 -0.000104  0.000265 -0.000071  0.000134  0.000000  0.000000  0.000000  0.000000
                                 0.000000  0.000000  0.000000  0.000000  0.000000  0.000000  0.000000  0.000000  0.000000  0.000000

   2.3   0     0.2189   -1.0444 -0.797669  0.013983 -0.234243  0.752656 -1.386492  2.042303  0.000000  0.000000  0.000000  0.000000
                                 0.000000  0.000000  0.000000  0.000000  0.000000  0.000000  0.000000  0.000000  0.000000  0.000000

   3.3   0     0.6348   -0.7046  0.000000  0.000000  0.000000  0.000000  0.000000  0.000000 -0.024912  0.000000  0.266417  0.000000
                                -0.452588  0.000000  1.239251  0.000000  0.000000  0.000000  0.000000  0.000000  0.000000  0.000000

                                   1 3d2-    1 3d2-    1 3d2-    1 3d2-    1 3d2-    1 5g2-    1 5g4-    1 5g2-    1 5g4-    1 5g2- 
                                   1 5g4-    1 7i2-    1 7i6-    1 7i4- 

   1.4   0     0.2507   -1.2496  0.038216 -0.271911  0.746061 -1.116435  1.593981  0.000000  0.000000  0.000000  0.000000  0.000000
                                 0.000000  0.000000  0.000000  0.000000

   2.4   0     0.7189   -0.5916 -0.196291  0.693723 -1.668668  3.579766 -2.124038  0.000000  0.000000  0.000000  0.000000  0.000000
                                 0.000000  0.000000  0.000000  0.000000

                                   1 2pz     1 2pz     1 2pz     1 2pz     1 2pz     1 2pz     1 4f0     1 4f2+    1 4f0     1 4f2+ 
                                   1 4f0     1 4f2+    1 4f0     1 4f2+    1 6h2+    1 6h4+    1 6h0     1 6h2+    1 6h4+    1 6h0  


   1.5   +    -0.3446   -2.8441  0.999786  0.000001 -0.000104  0.000265 -0.000071  0.000134  0.000000  0.000000  0.000000  0.000000
                                 0.000000  0.000000  0.000000  0.000000  0.000000  0.000000  0.000000  0.000000  0.000000  0.000000

   2.5   0     0.2189   -1.0444 -0.797669  0.013983 -0.234243  0.752656 -1.386492  2.042303  0.000000  0.000000  0.000000  0.000000
                                 0.000000  0.000000  0.000000  0.000000  0.000000  0.000000  0.000000  0.000000  0.000000  0.000000

   3.5   0     0.6348   -0.7046  0.000000  0.000000  0.000000  0.000000  0.000000  0.000000 -0.024912  0.000000  0.266417  0.000000
                                -0.452588  0.000000  1.239251  0.000000  0.000000  0.000000  0.000000  0.000000  0.000000  0.000000

                                   1 3d1+    1 3d1+    1 3d1+    1 3d1+    1 3d1+    1 5g1+    1 5g3+    1 5g1+    1 5g3+    1 5g1+ 
                                   1 5g3+    1 7i5+    1 7i3+    1 7i1+ 

   1.6   0     0.2507   -1.2496  0.038216 -0.271911  0.746061 -1.116435  1.593981  0.000000  0.000000  0.000000  0.000000  0.000000
                                 0.000000  0.000000  0.000000  0.000000

   2.6   0     0.7189   -0.5916 -0.196291  0.693723 -1.668668  3.579766 -2.124038  0.000000  0.000000  0.000000  0.000000  0.000000
                                 0.000000  0.000000  0.000000  0.000000

                                   1 3d1-    1 3d1-    1 3d1-    1 3d1-    1 3d1-    1 5g1-    1 5g3-    1 5g1-    1 5g3-    1 5g1- 
                                   1 5g3-    1 7i5-    1 7i3-    1 7i1- 

   1.7   0     0.2507   -1.2496  0.038216 -0.271911  0.746061 -1.116435  1.593981  0.000000  0.000000  0.000000  0.000000  0.000000
                                 0.000000  0.000000  0.000000  0.000000

   2.7   0     0.7189   -0.5916 -0.196291  0.693723 -1.668668  3.579766 -2.124038  0.000000  0.000000  0.000000  0.000000  0.000000
                                 0.000000  0.000000  0.000000  0.000000

                                   1 4f2-    1 4f2-    1 4f2-    1 4f2-    1 6h4-    1 6h2-    1 6h4-    1 6h2- 

   1.8   0     0.6348   -0.7046 -0.024912  0.266417 -0.452588  1.239251  0.000000  0.000000  0.000000  0.000000

   2.8   0     1.3689    0.1694  0.267001 -0.228726  1.618481 -1.091869  0.000000  0.000000  0.000000  0.000000

 HOMO      1.2    -0.344596 =      -9.3769eV
 LUMO      2.2     0.218888 =       5.9562eV
 LUMO-HOMO         0.563484 =      15.3332eV


 **********************************************************************************************************************************
 DATASETS  * FILE   NREC   LENGTH (MB)   RECORD NAMES
              1      20       20.39       500      610      700      900      950      970     1000      129      960     1100   
                                          VAR    BASINP    GEOM    SYMINP    ZMAT    AOBASIS   BASIS     P2S    ABASIS      S 
                                         1400     1410     1420     1200     1210     1080     1600     1650     1700     1380   
                                           T        V       ECP      H0       H01     AOSYM     SMH    MOLCAS    OPER     JKOP   

              2       6        8.07       700     1000      520     4202     5202     2101   
                                         GEOM     BASIS   MCVARS     RHF     MCSCF     RHF  

 PROGRAMS   *        TOTAL       RHF     MULTI       POP       RHF       INT
 CPU TIMES  *         1.82      0.05      0.15      0.01      0.11      1.09
 REAL TIME  *         3.75 SEC
 DISK USED  *       444.82 MB      
 SF USED    *        10.31 MB      
 GA USED    *         0.00 MB       (max)       0.00 MB       (current)
 **********************************************************************************************************************************
 SETTING SCF(1)         =       -11.21512160  AU                              


 PROGRAM * CCSD (Unrestricted open-shell coupled cluster)     Authors: C. Hampel, H.-J. Werner, 1991, M. Deegan, P.J. Knowles, 1992


 Convergence thresholds:  THRVAR = 1.00D-08  THRDEN = 1.00D-06

 CCSD(T)     terms to be evaluated (factor= 1.000)


 Number of closed-shell orbitals:   3 (   1   1   1   0   0   0   0   0 )
 Number of active  orbitals:        1 (   0   0   0   0   1   0   0   0 )
 Number of external orbitals:     135 (  28  19  19  14  19  14  14   8 )

 Memory could be reduced to 3.76 Mwords without degradation in triples

 Number of N-1 electron functions:               7
 Number of N-2 electron functions:              21
 Number of singly external CSFs:               152
 Number of doubly external CSFs:             38940
 Total number of CSFs:                       39092

 Molecular orbitals read from record     2101.2  Type=RHF/CANONICAL (state 1.5)

 Integral transformation finished. Total CPU:   0.09 sec, npass=  1  Memory used:   0.59 MW

 Starting RMP2 calculation

 ITER.      SQ.NORM     CORR.ENERGY   TOTAL ENERGY   ENERGY CHANGE        DEN1      VAR(S)    VAR(P)  DIIS     TIME
   1      1.06699623    -0.15907792   -11.37419952    -0.15907792    -0.00101921  0.42D-04  0.48D-03  1  1     0.12
   2      1.06830318    -0.16020512   -11.37532673    -0.00112720    -0.00000155  0.18D-06  0.70D-06  2  2     0.12
   3      1.06833581    -0.16022021   -11.37534182    -0.00001509    -0.00000000  0.14D-08  0.94D-09  3  3     0.13
   4      1.06833632    -0.16022031   -11.37534192    -0.00000010    -0.00000000  0.13D-10  0.24D-11  4  4     0.13

 Norm of t1 vector:      0.05991142      S-energy:    -0.00450242      T1 diagnostic:  0.01027765
 Norm of t2 vector:      0.25445420      P-energy:    -0.15571789
                                         Alpha-Beta:  -0.12611710
                                         Alpha-Alpha: -0.02000360
                                         Beta-Beta:   -0.00959720

 Spin contamination <S**2-Sz**2-Sz>     0.00320757
  Reference energy                    -11.215121604139
  RHF-RMP2 correlation energy          -0.160220312315
 !RHF-RMP2 energy                     -11.375341916454

 Starting UCCSD calculation

 ITER.      SQ.NORM     CORR.ENERGY   TOTAL ENERGY   ENERGY CHANGE        DEN1      VAR(S)    VAR(P)  DIIS     TIME
   1      1.07606129    -0.16649146   -11.38161307    -0.16649146    -0.00514129  0.43D-03  0.19D-02  1  1     0.16
   2      1.08435407    -0.17246993   -11.38759154    -0.00597847    -0.00018041  0.13D-04  0.71D-04  2  2     0.17
   3      1.08573493    -0.17306650   -11.38818811    -0.00059657    -0.00001239  0.80D-06  0.56D-05  3  3     0.20
   4      1.08605855    -0.17316838   -11.38828998    -0.00010187    -0.00000090  0.35D-07  0.46D-06  4  4     0.22
   5      1.08613787    -0.17319128   -11.38831289    -0.00002291    -0.00000006  0.44D-08  0.30D-07  5  5     0.23
   6      1.08614150    -0.17319036   -11.38831197     0.00000092    -0.00000001  0.42D-09  0.37D-08  6  6     0.25

 Norm of t1 vector:      0.07687664      S-energy:    -0.00543666      T1 diagnostic:  0.01515129
                                                                       D1 diagnostic:  0.03295733
 Norm of t2 vector:      0.28325163      P-energy:    -0.16775370
                                         Alpha-Beta:  -0.13900268
                                         Alpha-Alpha: -0.01944379
                                         Beta-Beta:   -0.00930723

 Spin contamination <S**2-Sz**2-Sz>     0.00213075

 Memory could be reduced to 3.75 Mwords without degradation in triples
 

 RESULTS
 =======

  Reference energy                    -11.215121604139
  UCCSD singles energy                 -0.005436663687
  UCCSD pair energy                    -0.167753699816
  UCCSD correlation energy             -0.173190363504
  Triples (T) contribution             -0.006828295942
  Total correlation energy             -0.180018659446
 
  RHF-UCCSD energy                    -11.388311967642
  RHF-UCCSD[T] energy                 -11.395168262861
  RHF-UCCSD-T energy                  -11.395128556108
 !RHF-UCCSD(T) energy                 -11.395140263584

 Program statistics:

 Available memory in ccsd:               511999732
 Min. memory needed in ccsd:                178585
 Max. memory used in ccsd:                  217447
 Max. memory used in cckext:                204275 ( 6 integral passes)
 Max. memory used in cckint:                592463 ( 1 integral passes)



 **********************************************************************************************************************************
 DATASETS  * FILE   NREC   LENGTH (MB)   RECORD NAMES
              1      20       20.39       500      610      700      900      950      970     1000      129      960     1100   
                                          VAR    BASINP    GEOM    SYMINP    ZMAT    AOBASIS   BASIS     P2S    ABASIS      S 
                                         1400     1410     1420     1200     1210     1080     1600     1650     1700     1380   
                                           T        V       ECP      H0       H01     AOSYM     SMH    MOLCAS    OPER     JKOP   

              2       6        8.07       700     1000      520     4202     5202     2101   
                                         GEOM     BASIS   MCVARS     RHF     MCSCF     RHF  

 PROGRAMS   *        TOTAL  UCCSD(T)       RHF     MULTI       POP       RHF       INT
 CPU TIMES  *         3.06      1.24      0.05      0.15      0.01      0.11      1.09
 REAL TIME  *         6.12 SEC
 DISK USED  *       594.63 MB      
 SF USED    *        35.70 MB      
 GA USED    *         0.00 MB       (max)       0.00 MB       (current)
 **********************************************************************************************************************************
 SETTING CCSD(1)        =       -11.39514026  AU                              
 Output type csv         
                                                                                                                                                                                                                                                                

       SCF,CCSD
   -11.21512160,   -11.39514026
                                                  

 UCCSD(T)/USERDEF energy=    -11.395140263584

        UCCSD(T)        RHF-SCF         MULTI           RHF-SCF 
    -11.39514026    -11.21512160    -11.21512160    -11.21721050
 **********************************************************************************************************************************
 Molpro calculation terminated
 Variable memory released
