/global/cscratch1/sd/bkincaid/Ir/250-610/runs/scf_310

     Program PWSCF v.6.4.1 starts on 17Jan2022 at 13:46:35 

     This program is part of the open-source Quantum ESPRESSO suite
     for quantum simulation of materials; please cite
         "P. Giannozzi et al., J. Phys.:Condens. Matter 21 395502 (2009);
         "P. Giannozzi et al., J. Phys.:Condens. Matter 29 465901 (2017);
          URL http://www.quantum-espresso.org", 
     in publications or presentations arising from this work. More details at
     http://www.quantum-espresso.org/quote

     Parallel version (MPI & OpenMP), running on      32 processor cores
     Number of MPI processes:                32
     Threads/MPI process:                     1

     MPI processes distributed on     1 nodes
     R & G space division:  proc/nbgrp/npool/nimage =      32
     Reading input from scf_310.in

     Current dimensions of program PWSCF are:
     Max number of different atomic species (ntypx) = 10
     Max number of k-points (npk) =  40000
     Max angular momentum in pseudopotentials (lmaxx) =  3

     IMPORTANT: XC functional enforced from input :
     Exchange-correlation      = PBE ( 1  4  3  4 0 0)
     Any further DFT definition will be discarded
     Please, verify this is what you really want


     gamma-point specific algorithms are used
     Message from routine setup:
     the system is metallic, specify occupations

     Subspace diagonalization in iterative solution of the eigenvalue problem:
     one sub-group per band group will be used
     scalapack distributed-memory algorithm (size of sub-group:  4*  4 procs)

     Message from routine setup:
     DEPRECATED: symmetry with ibrav=0, use correct ibrav instead
 
     Parallelization info
     --------------------
     sticks:   dense  smooth     PW     G-vecs:    dense   smooth      PW
     Min        1584    1584    396               268684   268684   33572
     Max        1586    1586    398               268694   268694   33584
     Sum       50729   50729  12677              8598039  8598039 1074475
 


     bravais-lattice index     =            0
     lattice parameter (alat)  =      22.6767  a.u.
     unit-cell volume          =   11661.1222 (a.u.)^3
     number of atoms/cell      =            1
     number of atomic types    =            1
     number of electrons       =        17.00 (up:  10.00, down:   7.00)
     number of Kohn-Sham states=           12
     kinetic-energy cutoff     =     310.0000  Ry
     charge density cutoff     =    1240.0000  Ry
     convergence threshold     =      1.0E-06
     mixing beta               =       0.7000
     number of iterations used =            8  plain     mixing
     Exchange-correlation      = PBE ( 1  4  3  4 0 0)

     celldm(1)=  22.676714  celldm(2)=   0.000000  celldm(3)=   0.000000
     celldm(4)=   0.000000  celldm(5)=   0.000000  celldm(6)=   0.000000

     crystal axes: (cart. coord. in units of alat)
               a(1) = (   1.000000   0.000000   0.000000 )  
               a(2) = (   0.000000   1.000000   0.000000 )  
               a(3) = (   0.000000   0.000000   1.000000 )  

     reciprocal axes: (cart. coord. in units 2 pi/alat)
               b(1) = (  1.000000  0.000000  0.000000 )  
               b(2) = (  0.000000  1.000000  0.000000 )  
               b(3) = (  0.000000  0.000000  1.000000 )  


     PseudoPot. # 1 for Ir read from file:
     ./Ir.upf
     MD5 check sum: 4ec64f0b3ebe11de5a1e063b7aff0c74
     Pseudo is Norm-conserving, Zval = 17.0
     Generated by new atomic code, or converted to UPF format
     Using radial grid of 1188 points,  3 beta functions with: 
                l(1) =   1
                l(2) =   2
                l(3) =   3

     atomic species   valence    mass     pseudopotential
        Ir            17.00   192.20000     Ir( 1.00)

     Starting magnetic structure 
     atomic species   magnetization
        Ir           0.500

     48 Sym. Ops., with inversion, found


                                    s                        frac. trans.

      isym =  1     identity                                     

 cryst.   s( 1) = (     1          0          0      )
                  (     0          1          0      )
                  (     0          0          1      )

 cart.    s( 1) = (  1.0000000  0.0000000  0.0000000 )
                  (  0.0000000  1.0000000  0.0000000 )
                  (  0.0000000  0.0000000  1.0000000 )


      isym =  2     180 deg rotation - cart. axis [0,0,1]        

 cryst.   s( 2) = (    -1          0          0      )
                  (     0         -1          0      )
                  (     0          0          1      )

 cart.    s( 2) = ( -1.0000000  0.0000000  0.0000000 )
                  (  0.0000000 -1.0000000  0.0000000 )
                  (  0.0000000  0.0000000  1.0000000 )


      isym =  3     180 deg rotation - cart. axis [0,1,0]        

 cryst.   s( 3) = (    -1          0          0      )
                  (     0          1          0      )
                  (     0          0         -1      )

 cart.    s( 3) = ( -1.0000000  0.0000000  0.0000000 )
                  (  0.0000000  1.0000000  0.0000000 )
                  (  0.0000000  0.0000000 -1.0000000 )


      isym =  4     180 deg rotation - cart. axis [1,0,0]        

 cryst.   s( 4) = (     1          0          0      )
                  (     0         -1          0      )
                  (     0          0         -1      )

 cart.    s( 4) = (  1.0000000  0.0000000  0.0000000 )
                  (  0.0000000 -1.0000000  0.0000000 )
                  (  0.0000000  0.0000000 -1.0000000 )


      isym =  5     180 deg rotation - cart. axis [1,1,0]        

 cryst.   s( 5) = (     0          1          0      )
                  (     1          0          0      )
                  (     0          0         -1      )

 cart.    s( 5) = (  0.0000000  1.0000000  0.0000000 )
                  (  1.0000000  0.0000000  0.0000000 )
                  (  0.0000000  0.0000000 -1.0000000 )


      isym =  6     180 deg rotation - cart. axis [1,-1,0]       

 cryst.   s( 6) = (     0         -1          0      )
                  (    -1          0          0      )
                  (     0          0         -1      )

 cart.    s( 6) = (  0.0000000 -1.0000000  0.0000000 )
                  ( -1.0000000  0.0000000  0.0000000 )
                  (  0.0000000  0.0000000 -1.0000000 )


      isym =  7      90 deg rotation - cart. axis [0,0,-1]       

 cryst.   s( 7) = (     0         -1          0      )
                  (     1          0          0      )
                  (     0          0          1      )

 cart.    s( 7) = (  0.0000000  1.0000000  0.0000000 )
                  ( -1.0000000  0.0000000  0.0000000 )
                  (  0.0000000  0.0000000  1.0000000 )


      isym =  8      90 deg rotation - cart. axis [0,0,1]        

 cryst.   s( 8) = (     0          1          0      )
                  (    -1          0          0      )
                  (     0          0          1      )

 cart.    s( 8) = (  0.0000000 -1.0000000  0.0000000 )
                  (  1.0000000  0.0000000  0.0000000 )
                  (  0.0000000  0.0000000  1.0000000 )


      isym =  9     180 deg rotation - cart. axis [1,0,1]        

 cryst.   s( 9) = (     0          0          1      )
                  (     0         -1          0      )
                  (     1          0          0      )

 cart.    s( 9) = (  0.0000000  0.0000000  1.0000000 )
                  (  0.0000000 -1.0000000  0.0000000 )
                  (  1.0000000  0.0000000  0.0000000 )


      isym = 10     180 deg rotation - cart. axis [-1,0,1]       

 cryst.   s(10) = (     0          0         -1      )
                  (     0         -1          0      )
                  (    -1          0          0      )

 cart.    s(10) = (  0.0000000  0.0000000 -1.0000000 )
                  (  0.0000000 -1.0000000  0.0000000 )
                  ( -1.0000000  0.0000000  0.0000000 )


      isym = 11      90 deg rotation - cart. axis [0,1,0]        

 cryst.   s(11) = (     0          0         -1      )
                  (     0          1          0      )
                  (     1          0          0      )

 cart.    s(11) = (  0.0000000  0.0000000  1.0000000 )
                  (  0.0000000  1.0000000  0.0000000 )
                  ( -1.0000000  0.0000000  0.0000000 )


      isym = 12      90 deg rotation - cart. axis [0,-1,0]       

 cryst.   s(12) = (     0          0          1      )
                  (     0          1          0      )
                  (    -1          0          0      )

 cart.    s(12) = (  0.0000000  0.0000000 -1.0000000 )
                  (  0.0000000  1.0000000  0.0000000 )
                  (  1.0000000  0.0000000  0.0000000 )


      isym = 13     180 deg rotation - cart. axis [0,1,1]        

 cryst.   s(13) = (    -1          0          0      )
                  (     0          0          1      )
                  (     0          1          0      )

 cart.    s(13) = ( -1.0000000  0.0000000  0.0000000 )
                  (  0.0000000  0.0000000  1.0000000 )
                  (  0.0000000  1.0000000  0.0000000 )


      isym = 14     180 deg rotation - cart. axis [0,1,-1]       

 cryst.   s(14) = (    -1          0          0      )
                  (     0          0         -1      )
                  (     0         -1          0      )

 cart.    s(14) = ( -1.0000000  0.0000000  0.0000000 )
                  (  0.0000000  0.0000000 -1.0000000 )
                  (  0.0000000 -1.0000000  0.0000000 )


      isym = 15      90 deg rotation - cart. axis [-1,0,0]       

 cryst.   s(15) = (     1          0          0      )
                  (     0          0         -1      )
                  (     0          1          0      )

 cart.    s(15) = (  1.0000000  0.0000000  0.0000000 )
                  (  0.0000000  0.0000000  1.0000000 )
                  (  0.0000000 -1.0000000  0.0000000 )


      isym = 16      90 deg rotation - cart. axis [1,0,0]        

 cryst.   s(16) = (     1          0          0      )
                  (     0          0          1      )
                  (     0         -1          0      )

 cart.    s(16) = (  1.0000000  0.0000000  0.0000000 )
                  (  0.0000000  0.0000000 -1.0000000 )
                  (  0.0000000  1.0000000  0.0000000 )


      isym = 17     120 deg rotation - cart. axis [-1,-1,-1]     

 cryst.   s(17) = (     0          0          1      )
                  (     1          0          0      )
                  (     0          1          0      )

 cart.    s(17) = (  0.0000000  1.0000000  0.0000000 )
                  (  0.0000000  0.0000000  1.0000000 )
                  (  1.0000000  0.0000000  0.0000000 )


      isym = 18     120 deg rotation - cart. axis [-1,1,1]       

 cryst.   s(18) = (     0          0         -1      )
                  (    -1          0          0      )
                  (     0          1          0      )

 cart.    s(18) = (  0.0000000 -1.0000000  0.0000000 )
                  (  0.0000000  0.0000000  1.0000000 )
                  ( -1.0000000  0.0000000  0.0000000 )


      isym = 19     120 deg rotation - cart. axis [1,1,-1]       

 cryst.   s(19) = (     0          0         -1      )
                  (     1          0          0      )
                  (     0         -1          0      )

 cart.    s(19) = (  0.0000000  1.0000000  0.0000000 )
                  (  0.0000000  0.0000000 -1.0000000 )
                  ( -1.0000000  0.0000000  0.0000000 )


      isym = 20     120 deg rotation - cart. axis [1,-1,1]       

 cryst.   s(20) = (     0          0          1      )
                  (    -1          0          0      )
                  (     0         -1          0      )

 cart.    s(20) = (  0.0000000 -1.0000000  0.0000000 )
                  (  0.0000000  0.0000000 -1.0000000 )
                  (  1.0000000  0.0000000  0.0000000 )


      isym = 21     120 deg rotation - cart. axis [1,1,1]        

 cryst.   s(21) = (     0          1          0      )
                  (     0          0          1      )
                  (     1          0          0      )

 cart.    s(21) = (  0.0000000  0.0000000  1.0000000 )
                  (  1.0000000  0.0000000  0.0000000 )
                  (  0.0000000  1.0000000  0.0000000 )


      isym = 22     120 deg rotation - cart. axis [-1,1,-1]      

 cryst.   s(22) = (     0         -1          0      )
                  (     0          0         -1      )
                  (     1          0          0      )

 cart.    s(22) = (  0.0000000  0.0000000  1.0000000 )
                  ( -1.0000000  0.0000000  0.0000000 )
                  (  0.0000000 -1.0000000  0.0000000 )


      isym = 23     120 deg rotation - cart. axis [1,-1,-1]      

 cryst.   s(23) = (     0         -1          0      )
                  (     0          0          1      )
                  (    -1          0          0      )

 cart.    s(23) = (  0.0000000  0.0000000 -1.0000000 )
                  ( -1.0000000  0.0000000  0.0000000 )
                  (  0.0000000  1.0000000  0.0000000 )


      isym = 24     120 deg rotation - cart. axis [-1,-1,1]      

 cryst.   s(24) = (     0          1          0      )
                  (     0          0         -1      )
                  (    -1          0          0      )

 cart.    s(24) = (  0.0000000  0.0000000 -1.0000000 )
                  (  1.0000000  0.0000000  0.0000000 )
                  (  0.0000000 -1.0000000  0.0000000 )


      isym = 25     inversion                                    

 cryst.   s(25) = (    -1          0          0      )
                  (     0         -1          0      )
                  (     0          0         -1      )

 cart.    s(25) = ( -1.0000000  0.0000000  0.0000000 )
                  (  0.0000000 -1.0000000  0.0000000 )
                  (  0.0000000  0.0000000 -1.0000000 )


      isym = 26     inv. 180 deg rotation - cart. axis [0,0,1]   

 cryst.   s(26) = (     1          0          0      )
                  (     0          1          0      )
                  (     0          0         -1      )

 cart.    s(26) = (  1.0000000  0.0000000  0.0000000 )
                  (  0.0000000  1.0000000  0.0000000 )
                  (  0.0000000  0.0000000 -1.0000000 )


      isym = 27     inv. 180 deg rotation - cart. axis [0,1,0]   

 cryst.   s(27) = (     1          0          0      )
                  (     0         -1          0      )
                  (     0          0          1      )

 cart.    s(27) = (  1.0000000  0.0000000  0.0000000 )
                  (  0.0000000 -1.0000000  0.0000000 )
                  (  0.0000000  0.0000000  1.0000000 )


      isym = 28     inv. 180 deg rotation - cart. axis [1,0,0]   

 cryst.   s(28) = (    -1          0          0      )
                  (     0          1          0      )
                  (     0          0          1      )

 cart.    s(28) = ( -1.0000000  0.0000000  0.0000000 )
                  (  0.0000000  1.0000000  0.0000000 )
                  (  0.0000000  0.0000000  1.0000000 )


      isym = 29     inv. 180 deg rotation - cart. axis [1,1,0]   

 cryst.   s(29) = (     0         -1          0      )
                  (    -1          0          0      )
                  (     0          0          1      )

 cart.    s(29) = (  0.0000000 -1.0000000  0.0000000 )
                  ( -1.0000000  0.0000000  0.0000000 )
                  (  0.0000000  0.0000000  1.0000000 )


      isym = 30     inv. 180 deg rotation - cart. axis [1,-1,0]  

 cryst.   s(30) = (     0          1          0      )
                  (     1          0          0      )
                  (     0          0          1      )

 cart.    s(30) = (  0.0000000  1.0000000  0.0000000 )
                  (  1.0000000  0.0000000  0.0000000 )
                  (  0.0000000  0.0000000  1.0000000 )


      isym = 31     inv.  90 deg rotation - cart. axis [0,0,-1]  

 cryst.   s(31) = (     0          1          0      )
                  (    -1          0          0      )
                  (     0          0         -1      )

 cart.    s(31) = (  0.0000000 -1.0000000  0.0000000 )
                  (  1.0000000  0.0000000  0.0000000 )
                  (  0.0000000  0.0000000 -1.0000000 )


      isym = 32     inv.  90 deg rotation - cart. axis [0,0,1]   

 cryst.   s(32) = (     0         -1          0      )
                  (     1          0          0      )
                  (     0          0         -1      )

 cart.    s(32) = (  0.0000000  1.0000000  0.0000000 )
                  ( -1.0000000  0.0000000  0.0000000 )
                  (  0.0000000  0.0000000 -1.0000000 )


      isym = 33     inv. 180 deg rotation - cart. axis [1,0,1]   

 cryst.   s(33) = (     0          0         -1      )
                  (     0          1          0      )
                  (    -1          0          0      )

 cart.    s(33) = (  0.0000000  0.0000000 -1.0000000 )
                  (  0.0000000  1.0000000  0.0000000 )
                  ( -1.0000000  0.0000000  0.0000000 )


      isym = 34     inv. 180 deg rotation - cart. axis [-1,0,1]  

 cryst.   s(34) = (     0          0          1      )
                  (     0          1          0      )
                  (     1          0          0      )

 cart.    s(34) = (  0.0000000  0.0000000  1.0000000 )
                  (  0.0000000  1.0000000  0.0000000 )
                  (  1.0000000  0.0000000  0.0000000 )


      isym = 35     inv.  90 deg rotation - cart. axis [0,1,0]   

 cryst.   s(35) = (     0          0          1      )
                  (     0         -1          0      )
                  (    -1          0          0      )

 cart.    s(35) = (  0.0000000  0.0000000 -1.0000000 )
                  (  0.0000000 -1.0000000  0.0000000 )
                  (  1.0000000  0.0000000  0.0000000 )


      isym = 36     inv.  90 deg rotation - cart. axis [0,-1,0]  

 cryst.   s(36) = (     0          0         -1      )
                  (     0         -1          0      )
                  (     1          0          0      )

 cart.    s(36) = (  0.0000000  0.0000000  1.0000000 )
                  (  0.0000000 -1.0000000  0.0000000 )
                  ( -1.0000000  0.0000000  0.0000000 )


      isym = 37     inv. 180 deg rotation - cart. axis [0,1,1]   

 cryst.   s(37) = (     1          0          0      )
                  (     0          0         -1      )
                  (     0         -1          0      )

 cart.    s(37) = (  1.0000000  0.0000000  0.0000000 )
                  (  0.0000000  0.0000000 -1.0000000 )
                  (  0.0000000 -1.0000000  0.0000000 )


      isym = 38     inv. 180 deg rotation - cart. axis [0,1,-1]  

 cryst.   s(38) = (     1          0          0      )
                  (     0          0          1      )
                  (     0          1          0      )

 cart.    s(38) = (  1.0000000  0.0000000  0.0000000 )
                  (  0.0000000  0.0000000  1.0000000 )
                  (  0.0000000  1.0000000  0.0000000 )


      isym = 39     inv.  90 deg rotation - cart. axis [-1,0,0]  

 cryst.   s(39) = (    -1          0          0      )
                  (     0          0          1      )
                  (     0         -1          0      )

 cart.    s(39) = ( -1.0000000  0.0000000  0.0000000 )
                  (  0.0000000  0.0000000 -1.0000000 )
                  (  0.0000000  1.0000000  0.0000000 )


      isym = 40     inv.  90 deg rotation - cart. axis [1,0,0]   

 cryst.   s(40) = (    -1          0          0      )
                  (     0          0         -1      )
                  (     0          1          0      )

 cart.    s(40) = ( -1.0000000  0.0000000  0.0000000 )
                  (  0.0000000  0.0000000  1.0000000 )
                  (  0.0000000 -1.0000000  0.0000000 )


      isym = 41     inv. 120 deg rotation - cart. axis [-1,-1,-1]

 cryst.   s(41) = (     0          0         -1      )
                  (    -1          0          0      )
                  (     0         -1          0      )

 cart.    s(41) = (  0.0000000 -1.0000000  0.0000000 )
                  (  0.0000000  0.0000000 -1.0000000 )
                  ( -1.0000000  0.0000000  0.0000000 )


      isym = 42     inv. 120 deg rotation - cart. axis [-1,1,1]  

 cryst.   s(42) = (     0          0          1      )
                  (     1          0          0      )
                  (     0         -1          0      )

 cart.    s(42) = (  0.0000000  1.0000000  0.0000000 )
                  (  0.0000000  0.0000000 -1.0000000 )
                  (  1.0000000  0.0000000  0.0000000 )


      isym = 43     inv. 120 deg rotation - cart. axis [1,1,-1]  

 cryst.   s(43) = (     0          0          1      )
                  (    -1          0          0      )
                  (     0          1          0      )

 cart.    s(43) = (  0.0000000 -1.0000000  0.0000000 )
                  (  0.0000000  0.0000000  1.0000000 )
                  (  1.0000000  0.0000000  0.0000000 )


      isym = 44     inv. 120 deg rotation - cart. axis [1,-1,1]  

 cryst.   s(44) = (     0          0         -1      )
                  (     1          0          0      )
                  (     0          1          0      )

 cart.    s(44) = (  0.0000000  1.0000000  0.0000000 )
                  (  0.0000000  0.0000000  1.0000000 )
                  ( -1.0000000  0.0000000  0.0000000 )


      isym = 45     inv. 120 deg rotation - cart. axis [1,1,1]   

 cryst.   s(45) = (     0         -1          0      )
                  (     0          0         -1      )
                  (    -1          0          0      )

 cart.    s(45) = (  0.0000000  0.0000000 -1.0000000 )
                  ( -1.0000000  0.0000000  0.0000000 )
                  (  0.0000000 -1.0000000  0.0000000 )


      isym = 46     inv. 120 deg rotation - cart. axis [-1,1,-1] 

 cryst.   s(46) = (     0          1          0      )
                  (     0          0          1      )
                  (    -1          0          0      )

 cart.    s(46) = (  0.0000000  0.0000000 -1.0000000 )
                  (  1.0000000  0.0000000  0.0000000 )
                  (  0.0000000  1.0000000  0.0000000 )


      isym = 47     inv. 120 deg rotation - cart. axis [1,-1,-1] 

 cryst.   s(47) = (     0          1          0      )
                  (     0          0         -1      )
                  (     1          0          0      )

 cart.    s(47) = (  0.0000000  0.0000000  1.0000000 )
                  (  1.0000000  0.0000000  0.0000000 )
                  (  0.0000000 -1.0000000  0.0000000 )


      isym = 48     inv. 120 deg rotation - cart. axis [-1,-1,1] 

 cryst.   s(48) = (     0         -1          0      )
                  (     0          0          1      )
                  (     1          0          0      )

 cart.    s(48) = (  0.0000000  0.0000000  1.0000000 )
                  ( -1.0000000  0.0000000  0.0000000 )
                  (  0.0000000  1.0000000  0.0000000 )


   Cartesian axes

     site n.     atom                  positions (alat units)
         1           Ir  tau(   1) = (   0.5000000   0.5000000   0.5000000  )

   Crystallographic axes

     site n.     atom                  positions (cryst. coord.)
         1           Ir  tau(   1) = (  0.5000000  0.5000000  0.5000000  )

     number of k points=     1
                       cart. coord. in units 2pi/alat
        k(    1) = (   0.0000000   0.0000000   0.0000000), wk =   1.0000000

                       cryst. coord.
        k(    1) = (   0.0000000   0.0000000   0.0000000), wk =   1.0000000

     Dense  grid:  4299020 G-vectors     FFT dimensions: ( 256, 256, 256)

     Dynamical RAM for                 wfc:       3.07 MB

     Dynamical RAM for     wfc (w. buffer):       9.22 MB

     Dynamical RAM for           str. fact:       2.05 MB

     Dynamical RAM for           local pot:       0.00 MB

     Dynamical RAM for          nlocal pot:       3.84 MB

     Dynamical RAM for                qrad:       4.07 MB

     Dynamical RAM for          rho,v,vnew:      36.30 MB

     Dynamical RAM for               rhoin:      12.10 MB

     Dynamical RAM for            rho*nmix:      65.60 MB

     Dynamical RAM for           G-vectors:       8.71 MB

     Dynamical RAM for          h,s,v(r/c):       0.00 MB

     Dynamical RAM for          <psi|beta>:       0.00 MB

     Dynamical RAM for                 psi:      12.30 MB

     Dynamical RAM for                hpsi:      12.30 MB

     Dynamical RAM for      wfcinit/wfcrot:       8.21 MB

     Estimated static dynamical RAM per process >     170.00 MB

     Estimated max dynamical RAM per process >     194.61 MB

     Estimated total dynamical RAM >       6.08 GB
     Generating pointlists ...
     new r_m :   0.4125 (alat units)  9.3541 (a.u.) for type    1

     Initial potential from superposition of free atoms

     starting charge   14.48040, renormalised to   17.00000

     negative rho (up, down):  3.690E-03 0.000E+00
     Starting wfcs are   16 randomized atomic wfcs

     total cpu time spent up to now is        5.4 secs

     Self-consistent Calculation

     iteration #  1     ecut=   310.00 Ry     beta= 0.70
     Davidson diagonalization with overlap
     ethr =  1.00E-02,  avg # of iterations =  9.5

     negative rho (up, down):  1.029E-07 5.647E-02

     total cpu time spent up to now is       13.3 secs

     total energy              =    -199.71045583 Ry
     Harris-Foulkes estimate   =    -211.26027669 Ry
     estimated scf accuracy    <      14.85953365 Ry

     total magnetization       =     3.00 Bohr mag/cell
     absolute magnetization    =     6.06 Bohr mag/cell

     iteration #  2     ecut=   310.00 Ry     beta= 0.70
     Davidson diagonalization with overlap
     ethr =  1.00E-02,  avg # of iterations =  9.0

     negative rho (up, down):  1.611E-08 5.476E-02

     total cpu time spent up to now is       20.3 secs

     total energy              =    -209.21570242 Ry
     Harris-Foulkes estimate   =    -213.60828038 Ry
     estimated scf accuracy    <       7.37885947 Ry

     total magnetization       =     3.00 Bohr mag/cell
     absolute magnetization    =     3.02 Bohr mag/cell

     iteration #  3     ecut=   310.00 Ry     beta= 0.70
     Davidson diagonalization with overlap
     ethr =  1.00E-02,  avg # of iterations =  2.5

     negative rho (up, down):  1.050E-08 5.496E-02

     total cpu time spent up to now is       25.2 secs

     total energy              =    -209.21982087 Ry
     Harris-Foulkes estimate   =    -209.73136948 Ry
     estimated scf accuracy    <       1.20213201 Ry

     total magnetization       =     3.00 Bohr mag/cell
     absolute magnetization    =     3.03 Bohr mag/cell

     iteration #  4     ecut=   310.00 Ry     beta= 0.70
     Davidson diagonalization with overlap
     ethr =  7.07E-03,  avg # of iterations =  1.0

     negative rho (up, down):  3.189E-03 1.469E-01

     total cpu time spent up to now is       29.2 secs

     total energy              =    -208.92973782 Ry
     Harris-Foulkes estimate   =    -209.25969823 Ry
     estimated scf accuracy    <       0.43404411 Ry

     total magnetization       =     3.00 Bohr mag/cell
     absolute magnetization    =     3.05 Bohr mag/cell

     iteration #  5     ecut=   310.00 Ry     beta= 0.70
     Davidson diagonalization with overlap
     ethr =  2.55E-03,  avg # of iterations =  8.5

     negative rho (up, down):  7.169E-03 1.237E-01

     total cpu time spent up to now is       35.3 secs

     total energy              =    -209.15294879 Ry
     Harris-Foulkes estimate   =    -209.14727386 Ry
     estimated scf accuracy    <       0.16322926 Ry

     total magnetization       =     3.00 Bohr mag/cell
     absolute magnetization    =     3.09 Bohr mag/cell

     iteration #  6     ecut=   310.00 Ry     beta= 0.70
     Davidson diagonalization with overlap
     ethr =  9.60E-04,  avg # of iterations =  1.0

     negative rho (up, down):  7.486E-03 1.311E-01

     total cpu time spent up to now is       39.3 secs

     total energy              =    -209.15257724 Ry
     Harris-Foulkes estimate   =    -209.15589443 Ry
     estimated scf accuracy    <       0.17880195 Ry

     total magnetization       =     3.00 Bohr mag/cell
     absolute magnetization    =     3.09 Bohr mag/cell

     iteration #  7     ecut=   310.00 Ry     beta= 0.70
     Davidson diagonalization with overlap
     ethr =  9.60E-04,  avg # of iterations =  1.0

     negative rho (up, down):  1.543E-02 1.752E-01

     total cpu time spent up to now is       43.3 secs

     total energy              =    -209.07502988 Ry
     Harris-Foulkes estimate   =    -209.15358937 Ry
     estimated scf accuracy    <       0.17456597 Ry

     total magnetization       =     3.00 Bohr mag/cell
     absolute magnetization    =     3.08 Bohr mag/cell

     iteration #  8     ecut=   310.00 Ry     beta= 0.70
     Davidson diagonalization with overlap
     ethr =  9.60E-04,  avg # of iterations =  2.5

     negative rho (up, down):  2.148E-02 1.556E-01

     total cpu time spent up to now is       47.8 secs

     total energy              =    -209.10903116 Ry
     Harris-Foulkes estimate   =    -209.11634662 Ry
     estimated scf accuracy    <       0.16053195 Ry

     total magnetization       =     3.00 Bohr mag/cell
     absolute magnetization    =     3.00 Bohr mag/cell

     iteration #  9     ecut=   310.00 Ry     beta= 0.70
     Davidson diagonalization with overlap
     ethr =  9.44E-04,  avg # of iterations =  1.0

     negative rho (up, down):  2.144E-02 1.558E-01

     total cpu time spent up to now is       51.9 secs

     total energy              =    -209.11064901 Ry
     Harris-Foulkes estimate   =    -209.11027907 Ry
     estimated scf accuracy    <       0.12654772 Ry

     total magnetization       =     3.00 Bohr mag/cell
     absolute magnetization    =     3.00 Bohr mag/cell

     iteration # 10     ecut=   310.00 Ry     beta= 0.70
     Davidson diagonalization with overlap
     ethr =  7.44E-04,  avg # of iterations =  1.0

     negative rho (up, down):  6.306E-04 2.975E-01

     total cpu time spent up to now is       56.1 secs

     total energy              =    -209.11968689 Ry
     Harris-Foulkes estimate   =    -209.11097446 Ry
     estimated scf accuracy    <       0.13073693 Ry

     total magnetization       =     3.00 Bohr mag/cell
     absolute magnetization    =     3.00 Bohr mag/cell

     iteration # 11     ecut=   310.00 Ry     beta= 0.70
     Davidson diagonalization with overlap
     ethr =  7.44E-04,  avg # of iterations =  1.0

     negative rho (up, down):  1.394E-03 4.430E-01

     total cpu time spent up to now is       60.3 secs

     total energy              =    -209.10871041 Ry
     Harris-Foulkes estimate   =    -209.12078558 Ry
     estimated scf accuracy    <       0.16186884 Ry

     total magnetization       =     3.00 Bohr mag/cell
     absolute magnetization    =     3.00 Bohr mag/cell

     iteration # 12     ecut=   310.00 Ry     beta= 0.70
     Davidson diagonalization with overlap
     ethr =  7.44E-04,  avg # of iterations =  1.0

     negative rho (up, down):  3.951E-03 3.710E-01

     total cpu time spent up to now is       64.4 secs

     total energy              =    -209.16086987 Ry
     Harris-Foulkes estimate   =    -209.11026188 Ry
     estimated scf accuracy    <       0.11945489 Ry

     total magnetization       =     3.00 Bohr mag/cell
     absolute magnetization    =     3.00 Bohr mag/cell

     iteration # 13     ecut=   310.00 Ry     beta= 0.70
     Davidson diagonalization with overlap
     ethr =  7.03E-04,  avg # of iterations =  5.0

     negative rho (up, down):  2.582E-03 4.041E-01

     total cpu time spent up to now is       69.5 secs

     total energy              =    -209.16079961 Ry
     Harris-Foulkes estimate   =    -209.19706442 Ry
     estimated scf accuracy    <       0.36223750 Ry

     total magnetization       =     3.00 Bohr mag/cell
     absolute magnetization    =     3.00 Bohr mag/cell

     iteration # 14     ecut=   310.00 Ry     beta= 0.70
     Davidson diagonalization with overlap
     ethr =  7.03E-04,  avg # of iterations =  1.0

     negative rho (up, down):  2.707E-05 1.068E-01

     total cpu time spent up to now is       73.8 secs

     total energy              =    -209.14457928 Ry
     Harris-Foulkes estimate   =    -209.16381184 Ry
     estimated scf accuracy    <       0.27369768 Ry

     total magnetization       =     3.00 Bohr mag/cell
     absolute magnetization    =     3.00 Bohr mag/cell

     iteration # 15     ecut=   310.00 Ry     beta= 0.70
     Davidson diagonalization with overlap
     ethr =  7.03E-04,  avg # of iterations =  1.5

     negative rho (up, down):  7.962E-05 1.114E-01

     total cpu time spent up to now is       78.4 secs

     total energy              =    -209.18914142 Ry
     Harris-Foulkes estimate   =    -209.16857591 Ry
     estimated scf accuracy    <       0.46869473 Ry

     total magnetization       =     3.00 Bohr mag/cell
     absolute magnetization    =     3.00 Bohr mag/cell

     iteration # 16     ecut=   310.00 Ry     beta= 0.70
     Davidson diagonalization with overlap
     ethr =  7.03E-04,  avg # of iterations =  3.0

     negative rho (up, down):  8.622E-04 1.228E-01

     total cpu time spent up to now is       83.3 secs

     total energy              =    -209.18010063 Ry
     Harris-Foulkes estimate   =    -209.22053053 Ry
     estimated scf accuracy    <       1.06923513 Ry

     total magnetization       =     3.00 Bohr mag/cell
     absolute magnetization    =     3.00 Bohr mag/cell

     iteration # 17     ecut=   310.00 Ry     beta= 0.70
     Davidson diagonalization with overlap
     ethr =  7.03E-04,  avg # of iterations =  1.5

     negative rho (up, down):  2.707E-07 1.268E-01

     total cpu time spent up to now is       87.7 secs

     total energy              =    -208.83508543 Ry
     Harris-Foulkes estimate   =    -209.18748009 Ry
     estimated scf accuracy    <       1.41309183 Ry

     total magnetization       =     3.00 Bohr mag/cell
     absolute magnetization    =     3.00 Bohr mag/cell

     iteration # 18     ecut=   310.00 Ry     beta= 0.70
     Davidson diagonalization with overlap
     ethr =  7.03E-04,  avg # of iterations =  3.5

     negative rho (up, down):  2.361E-07 4.765E-02

     total cpu time spent up to now is       93.5 secs

     total energy              =    -209.09876619 Ry
     Harris-Foulkes estimate   =    -209.12962089 Ry
     estimated scf accuracy    <       0.11502663 Ry

     total magnetization       =     3.00 Bohr mag/cell
     absolute magnetization    =     3.04 Bohr mag/cell

     iteration # 19     ecut=   310.00 Ry     beta= 0.70
     Davidson diagonalization with overlap
     ethr =  6.77E-04,  avg # of iterations =  1.5

     negative rho (up, down):  1.566E-08 3.560E-02

     total cpu time spent up to now is       97.9 secs

     total energy              =    -209.11231877 Ry
     Harris-Foulkes estimate   =    -209.11167187 Ry
     estimated scf accuracy    <       0.05499799 Ry

     total magnetization       =     3.00 Bohr mag/cell
     absolute magnetization    =     3.00 Bohr mag/cell

     iteration # 20     ecut=   310.00 Ry     beta= 0.70
     Davidson diagonalization with overlap
     ethr =  3.24E-04,  avg # of iterations =  1.0

     negative rho (up, down):  7.036E-10 3.113E-02

     total cpu time spent up to now is      102.1 secs

     total energy              =    -209.10943822 Ry
     Harris-Foulkes estimate   =    -209.11352501 Ry
     estimated scf accuracy    <       0.04158445 Ry

     total magnetization       =     3.00 Bohr mag/cell
     absolute magnetization    =     3.00 Bohr mag/cell

     iteration # 21     ecut=   310.00 Ry     beta= 0.70
     Davidson diagonalization with overlap
     ethr =  2.45E-04,  avg # of iterations =  1.0

     negative rho (up, down):  0.000E+00 2.909E-02

     total cpu time spent up to now is      106.4 secs

     total energy              =    -209.11250407 Ry
     Harris-Foulkes estimate   =    -209.11235033 Ry
     estimated scf accuracy    <       0.04208552 Ry

     total magnetization       =     3.00 Bohr mag/cell
     absolute magnetization    =     3.04 Bohr mag/cell

     iteration # 22     ecut=   310.00 Ry     beta= 0.70
     Davidson diagonalization with overlap
     ethr =  2.45E-04,  avg # of iterations =  1.0

     negative rho (up, down):  4.350E-08 2.910E-02

     total cpu time spent up to now is      110.6 secs

     total energy              =    -209.11220028 Ry
     Harris-Foulkes estimate   =    -209.11280103 Ry
     estimated scf accuracy    <       0.04243912 Ry

     total magnetization       =     3.00 Bohr mag/cell
     absolute magnetization    =     3.05 Bohr mag/cell

     iteration # 23     ecut=   310.00 Ry     beta= 0.70
     Davidson diagonalization with overlap
     ethr =  2.45E-04,  avg # of iterations =  1.0

     negative rho (up, down):  6.157E-09 2.187E-02

     total cpu time spent up to now is      114.8 secs

     total energy              =    -209.11011904 Ry
     Harris-Foulkes estimate   =    -209.11240006 Ry
     estimated scf accuracy    <       0.03337046 Ry

     total magnetization       =     3.00 Bohr mag/cell
     absolute magnetization    =     3.05 Bohr mag/cell

     iteration # 24     ecut=   310.00 Ry     beta= 0.70
     Davidson diagonalization with overlap
     ethr =  1.96E-04,  avg # of iterations =  1.0

     negative rho (up, down):  2.404E-12 2.523E-02

     total cpu time spent up to now is      119.0 secs

     total energy              =    -209.11291571 Ry
     Harris-Foulkes estimate   =    -209.11474229 Ry
     estimated scf accuracy    <       0.04316431 Ry

     total magnetization       =     3.00 Bohr mag/cell
     absolute magnetization    =     3.00 Bohr mag/cell

     iteration # 25     ecut=   310.00 Ry     beta= 0.70
     Davidson diagonalization with overlap
     ethr =  1.96E-04,  avg # of iterations =  1.0

     negative rho (up, down):  3.315E-07 1.957E-02

     total cpu time spent up to now is      123.2 secs

     total energy              =    -209.11497566 Ry
     Harris-Foulkes estimate   =    -209.11331307 Ry
     estimated scf accuracy    <       0.01912517 Ry

     total magnetization       =     3.00 Bohr mag/cell
     absolute magnetization    =     3.00 Bohr mag/cell

     iteration # 26     ecut=   310.00 Ry     beta= 0.70
     Davidson diagonalization with overlap
     ethr =  1.13E-04,  avg # of iterations =  1.0

     negative rho (up, down):  2.091E-07 1.584E-02

     total cpu time spent up to now is      127.4 secs

     total energy              =    -209.11521425 Ry
     Harris-Foulkes estimate   =    -209.11583139 Ry
     estimated scf accuracy    <       0.04427524 Ry

     total magnetization       =     3.00 Bohr mag/cell
     absolute magnetization    =     3.00 Bohr mag/cell

     iteration # 27     ecut=   310.00 Ry     beta= 0.70
     Davidson diagonalization with overlap
     ethr =  1.13E-04,  avg # of iterations =  1.0

     negative rho (up, down):  5.505E-05 3.889E-01

     total cpu time spent up to now is      131.6 secs

     total energy              =    -209.11638689 Ry
     Harris-Foulkes estimate   =    -209.11530058 Ry
     estimated scf accuracy    <       0.04049027 Ry

     total magnetization       =     3.00 Bohr mag/cell
     absolute magnetization    =     3.00 Bohr mag/cell

     iteration # 28     ecut=   310.00 Ry     beta= 0.70
     Davidson diagonalization with overlap
     ethr =  1.13E-04,  avg # of iterations =  1.0

     negative rho (up, down):  9.817E-10 5.081E-04

     total cpu time spent up to now is      135.9 secs

     total energy              =    -209.11476156 Ry
     Harris-Foulkes estimate   =    -209.11671318 Ry
     estimated scf accuracy    <       0.04825214 Ry

     total magnetization       =     3.00 Bohr mag/cell
     absolute magnetization    =     3.00 Bohr mag/cell

     iteration # 29     ecut=   310.00 Ry     beta= 0.70
     Davidson diagonalization with overlap
     ethr =  1.13E-04,  avg # of iterations =  1.0

     negative rho (up, down):  0.000E+00 2.263E-03

     total cpu time spent up to now is      140.1 secs

     total energy              =    -209.11444113 Ry
     Harris-Foulkes estimate   =    -209.11571812 Ry
     estimated scf accuracy    <       0.04091836 Ry

     total magnetization       =     3.00 Bohr mag/cell
     absolute magnetization    =     3.00 Bohr mag/cell

     iteration # 30     ecut=   310.00 Ry     beta= 0.70
     Davidson diagonalization with overlap
     ethr =  1.13E-04,  avg # of iterations =  1.0

     negative rho (up, down):  0.000E+00 3.415E-03

     total cpu time spent up to now is      144.3 secs

     total energy              =    -209.11462978 Ry
     Harris-Foulkes estimate   =    -209.11451978 Ry
     estimated scf accuracy    <       0.03538038 Ry

     total magnetization       =     3.00 Bohr mag/cell
     absolute magnetization    =     3.00 Bohr mag/cell

     iteration # 31     ecut=   310.00 Ry     beta= 0.70
     Davidson diagonalization with overlap
     ethr =  1.13E-04,  avg # of iterations =  1.0

     negative rho (up, down):  5.930E-08 8.462E-03

     total cpu time spent up to now is      148.5 secs

     total energy              =    -209.11560053 Ry
     Harris-Foulkes estimate   =    -209.11467059 Ry
     estimated scf accuracy    <       0.03478744 Ry

     total magnetization       =     3.00 Bohr mag/cell
     absolute magnetization    =     3.00 Bohr mag/cell

     iteration # 32     ecut=   310.00 Ry     beta= 0.70
     Davidson diagonalization with overlap
     ethr =  1.13E-04,  avg # of iterations =  1.0

     negative rho (up, down):  2.553E-10 4.186E-02

     total cpu time spent up to now is      152.7 secs

     total energy              =    -209.11152722 Ry
     Harris-Foulkes estimate   =    -209.11565265 Ry
     estimated scf accuracy    <       0.03766120 Ry

     total magnetization       =     3.00 Bohr mag/cell
     absolute magnetization    =     3.00 Bohr mag/cell

     iteration # 33     ecut=   310.00 Ry     beta= 0.70
     Davidson diagonalization with overlap
     ethr =  1.13E-04,  avg # of iterations =  6.5

     negative rho (up, down):  6.894E-13 1.591E-02

     total cpu time spent up to now is      158.1 secs

     total energy              =    -209.11816979 Ry
     Harris-Foulkes estimate   =    -209.11819124 Ry
     estimated scf accuracy    <       0.00526443 Ry

     total magnetization       =     3.00 Bohr mag/cell
     absolute magnetization    =     3.01 Bohr mag/cell

     iteration # 34     ecut=   310.00 Ry     beta= 0.70
     Davidson diagonalization with overlap
     ethr =  3.10E-05,  avg # of iterations =  1.0

     negative rho (up, down):  0.000E+00 1.144E-02

     total cpu time spent up to now is      162.3 secs

     total energy              =    -209.11871966 Ry
     Harris-Foulkes estimate   =    -209.11863654 Ry
     estimated scf accuracy    <       0.00524667 Ry

     total magnetization       =     3.00 Bohr mag/cell
     absolute magnetization    =     3.01 Bohr mag/cell

     iteration # 35     ecut=   310.00 Ry     beta= 0.70
     Davidson diagonalization with overlap
     ethr =  3.09E-05,  avg # of iterations =  1.0

     negative rho (up, down):  6.633E-08 1.153E-02

     total cpu time spent up to now is      166.6 secs

     total energy              =    -209.11843960 Ry
     Harris-Foulkes estimate   =    -209.11921114 Ry
     estimated scf accuracy    <       0.00335216 Ry

     total magnetization       =     3.00 Bohr mag/cell
     absolute magnetization    =     3.01 Bohr mag/cell

     iteration # 36     ecut=   310.00 Ry     beta= 0.70
     Davidson diagonalization with overlap
     ethr =  1.97E-05,  avg # of iterations =  2.0

     negative rho (up, down):  3.282E-09 4.600E-03

     total cpu time spent up to now is      171.3 secs

     total energy              =    -209.11997745 Ry
     Harris-Foulkes estimate   =    -209.12019893 Ry
     estimated scf accuracy    <       0.00574725 Ry

     total magnetization       =     3.00 Bohr mag/cell
     absolute magnetization    =     3.01 Bohr mag/cell

     iteration # 37     ecut=   310.00 Ry     beta= 0.70
     Davidson diagonalization with overlap
     ethr =  1.97E-05,  avg # of iterations =  1.0

     negative rho (up, down):  1.329E-09 3.251E-03

     total cpu time spent up to now is      175.5 secs

     total energy              =    -209.12010545 Ry
     Harris-Foulkes estimate   =    -209.12045118 Ry
     estimated scf accuracy    <       0.00378660 Ry

     total magnetization       =     3.00 Bohr mag/cell
     absolute magnetization    =     3.01 Bohr mag/cell

     iteration # 38     ecut=   310.00 Ry     beta= 0.70
     Davidson diagonalization with overlap
     ethr =  1.97E-05,  avg # of iterations =  1.0

     negative rho (up, down):  0.000E+00 1.374E-04

     total cpu time spent up to now is      179.8 secs

     total energy              =    -209.11949948 Ry
     Harris-Foulkes estimate   =    -209.12023477 Ry
     estimated scf accuracy    <       0.00293356 Ry

     total magnetization       =     3.00 Bohr mag/cell
     absolute magnetization    =     3.01 Bohr mag/cell

     iteration # 39     ecut=   310.00 Ry     beta= 0.70
     Davidson diagonalization with overlap
     ethr =  1.73E-05,  avg # of iterations =  1.5

     negative rho (up, down):  1.441E-09 2.200E-02

     total cpu time spent up to now is      184.1 secs

     total energy              =    -209.11884190 Ry
     Harris-Foulkes estimate   =    -209.11992065 Ry
     estimated scf accuracy    <       0.00139760 Ry

     total magnetization       =     3.00 Bohr mag/cell
     absolute magnetization    =     3.01 Bohr mag/cell

     iteration # 40     ecut=   310.00 Ry     beta= 0.70
     Davidson diagonalization with overlap
     ethr =  8.22E-06,  avg # of iterations =  5.0

     negative rho (up, down):  0.000E+00 4.053E-06

     total cpu time spent up to now is      190.1 secs

     total energy              =    -209.12013326 Ry
     Harris-Foulkes estimate   =    -209.12018125 Ry
     estimated scf accuracy    <       0.00138204 Ry

     total magnetization       =     3.00 Bohr mag/cell
     absolute magnetization    =     3.01 Bohr mag/cell

     iteration # 41     ecut=   310.00 Ry     beta= 0.70
     Davidson diagonalization with overlap
     ethr =  8.13E-06,  avg # of iterations =  1.0

     negative rho (up, down):  0.000E+00 4.774E-05

     total cpu time spent up to now is      194.3 secs

     total energy              =    -209.12018966 Ry
     Harris-Foulkes estimate   =    -209.12015145 Ry
     estimated scf accuracy    <       0.00076399 Ry

     total magnetization       =     3.00 Bohr mag/cell
     absolute magnetization    =     3.01 Bohr mag/cell

     iteration # 42     ecut=   310.00 Ry     beta= 0.70
     Davidson diagonalization with overlap
     ethr =  4.49E-06,  avg # of iterations =  1.0

     total cpu time spent up to now is      198.5 secs

     total energy              =    -209.12021036 Ry
     Harris-Foulkes estimate   =    -209.12024663 Ry
     estimated scf accuracy    <       0.00035356 Ry

     total magnetization       =     3.00 Bohr mag/cell
     absolute magnetization    =     3.01 Bohr mag/cell

     iteration # 43     ecut=   310.00 Ry     beta= 0.70
     Davidson diagonalization with overlap
     ethr =  2.08E-06,  avg # of iterations =  2.5

     total cpu time spent up to now is      203.3 secs

     total energy              =    -209.12032965 Ry
     Harris-Foulkes estimate   =    -209.12033286 Ry
     estimated scf accuracy    <       0.00002771 Ry

     total magnetization       =     3.00 Bohr mag/cell
     absolute magnetization    =     3.01 Bohr mag/cell

     iteration # 44     ecut=   310.00 Ry     beta= 0.70
     Davidson diagonalization with overlap
     ethr =  1.63E-07,  avg # of iterations =  3.5

     total cpu time spent up to now is      208.4 secs

     total energy              =    -209.12035103 Ry
     Harris-Foulkes estimate   =    -209.12034731 Ry
     estimated scf accuracy    <       0.00002060 Ry

     total magnetization       =     3.00 Bohr mag/cell
     absolute magnetization    =     3.01 Bohr mag/cell

     iteration # 45     ecut=   310.00 Ry     beta= 0.70
     Davidson diagonalization with overlap
     ethr =  1.21E-07,  avg # of iterations =  1.0

     total cpu time spent up to now is      212.7 secs

     total energy              =    -209.12035919 Ry
     Harris-Foulkes estimate   =    -209.12035333 Ry
     estimated scf accuracy    <       0.00002620 Ry

     total magnetization       =     3.00 Bohr mag/cell
     absolute magnetization    =     3.01 Bohr mag/cell

     iteration # 46     ecut=   310.00 Ry     beta= 0.70
     Davidson diagonalization with overlap
     ethr =  1.21E-07,  avg # of iterations =  2.5

     total cpu time spent up to now is      217.4 secs

     total energy              =    -209.12034581 Ry
     Harris-Foulkes estimate   =    -209.12036860 Ry
     estimated scf accuracy    <       0.00001236 Ry

     total magnetization       =     3.00 Bohr mag/cell
     absolute magnetization    =     3.01 Bohr mag/cell

     iteration # 47     ecut=   310.00 Ry     beta= 0.70
     Davidson diagonalization with overlap
     ethr =  7.27E-08,  avg # of iterations =  3.0

     total cpu time spent up to now is      222.8 secs

     total energy              =    -209.12039462 Ry
     Harris-Foulkes estimate   =    -209.12039516 Ry
     estimated scf accuracy    <       0.00002586 Ry

     total magnetization       =     3.00 Bohr mag/cell
     absolute magnetization    =     3.01 Bohr mag/cell

     iteration # 48     ecut=   310.00 Ry     beta= 0.70
     Davidson diagonalization with overlap
     ethr =  7.27E-08,  avg # of iterations =  2.0

     total cpu time spent up to now is      227.3 secs

     total energy              =    -209.12039331 Ry
     Harris-Foulkes estimate   =    -209.12039717 Ry
     estimated scf accuracy    <       0.00001312 Ry

     total magnetization       =     3.00 Bohr mag/cell
     absolute magnetization    =     3.01 Bohr mag/cell

     iteration # 49     ecut=   310.00 Ry     beta= 0.70
     Davidson diagonalization with overlap
     ethr =  7.27E-08,  avg # of iterations =  3.0

     total cpu time spent up to now is      232.4 secs

     total energy              =    -209.12039981 Ry
     Harris-Foulkes estimate   =    -209.12039959 Ry
     estimated scf accuracy    <       0.00000122 Ry

     total magnetization       =     3.00 Bohr mag/cell
     absolute magnetization    =     3.01 Bohr mag/cell

     iteration # 50     ecut=   310.00 Ry     beta= 0.70
     Davidson diagonalization with overlap
     ethr =  7.16E-09,  avg # of iterations =  3.0

     total cpu time spent up to now is      237.3 secs

     total energy              =    -209.12039902 Ry
     Harris-Foulkes estimate   =    -209.12040015 Ry
     estimated scf accuracy    <       0.00000110 Ry

     total magnetization       =     3.00 Bohr mag/cell
     absolute magnetization    =     3.01 Bohr mag/cell

     iteration # 51     ecut=   310.00 Ry     beta= 0.70
     Davidson diagonalization with overlap
     ethr =  6.45E-09,  avg # of iterations =  3.0
 
     Magnetic moment per site:
     atom:    1    charge:   16.9998    magn:    3.0000    constr:    0.0000

     total cpu time spent up to now is      242.0 secs

     End of self-consistent calculation

 ------ SPIN UP ------------


          k = 0.0000 0.0000 0.0000 (537238 PWs)   bands (ev):

   -96.1184 -53.5135 -53.5106 -53.3657  -6.8485  -6.8470  -6.2849  -6.0259
    -6.0234  -5.5757  -1.0618  -0.7611

     occupation numbers 
     1.0000   1.0000   1.0000   1.0000   1.0000   1.0000   1.0000   1.0000
     1.0000   1.0000   0.0000   0.0000

 ------ SPIN DOWN ----------


          k = 0.0000 0.0000 0.0000 (537238 PWs)   bands (ev):

   -94.8693 -52.0208 -52.0185 -51.8190  -4.9691  -4.9684  -4.7956  -4.6297
    -4.0798  -4.0780  -0.4098  -0.2877

     occupation numbers 
     1.0000   1.0000   1.0000   1.0000   1.0000   1.0000   1.0000   0.0000
     0.0000   0.0000   0.0000   0.0000

     highest occupied, lowest unoccupied level (ev):    -4.7956   -4.6297

!    total energy              =    -209.12040101 Ry
     Harris-Foulkes estimate   =    -209.12040103 Ry
     estimated scf accuracy    <       0.00000020 Ry

     The total energy is the sum of the following terms:

     one-electron contribution =    -290.02070225 Ry
     hartree contribution      =     138.17232800 Ry
     xc contribution           =     -21.11251147 Ry
     ewald contribution        =     -36.15951528 Ry

     total magnetization       =     3.00 Bohr mag/cell
     absolute magnetization    =     3.01 Bohr mag/cell

     convergence has been achieved in  51 iterations

     Writing output data file pwscf.save/
 
     init_run     :      5.00s CPU      5.27s WALL (       1 calls)
     electrons    :    233.03s CPU    237.13s WALL (       1 calls)

     Called by init_run:
     wfcinit      :      1.06s CPU      1.14s WALL (       1 calls)
     wfcinit:atom :      0.01s CPU      0.03s WALL (       2 calls)
     wfcinit:wfcr :      1.01s CPU      1.06s WALL (       2 calls)
     potinit      :      1.35s CPU      1.43s WALL (       1 calls)
     hinit0       :      0.22s CPU      0.30s WALL (       1 calls)

     Called by electrons:
     c_bands      :    107.14s CPU    108.84s WALL (      51 calls)
     sum_band     :     38.79s CPU     38.96s WALL (      51 calls)
     v_of_rho     :     61.20s CPU     63.03s WALL (      52 calls)
     v_h          :      4.55s CPU      4.59s WALL (      52 calls)
     v_xc         :     56.64s CPU     58.44s WALL (      52 calls)
     mix_rho      :     24.75s CPU     24.91s WALL (      51 calls)

     Called by c_bands:
     init_us_2    :      1.33s CPU      1.35s WALL (     206 calls)
     regterg      :    104.35s CPU    106.01s WALL (     102 calls)

     Called by sum_band:

     Called by *egterg:
     h_psi        :     96.41s CPU     96.74s WALL (     331 calls)
     g_psi        :      0.32s CPU      0.32s WALL (     227 calls)
     rdiaghg      :      0.33s CPU      0.34s WALL (     329 calls)
     regterg:over :      1.96s CPU      1.96s WALL (     227 calls)
     regterg:upda :      3.23s CPU      3.25s WALL (     227 calls)
     regterg:last :      1.21s CPU      1.22s WALL (     109 calls)
     rdiaghg:chol :      0.04s CPU      0.05s WALL (     329 calls)
     rdiaghg:inve :      0.01s CPU      0.01s WALL (     329 calls)
     rdiaghg:para :      0.04s CPU      0.04s WALL (     658 calls)

     Called by h_psi:
     h_psi:pot    :     95.70s CPU     96.02s WALL (     331 calls)
     h_psi:calbec :      0.70s CPU      0.72s WALL (     331 calls)
     vloc_psi     :     94.14s CPU     94.44s WALL (     331 calls)
     add_vuspsi   :      0.85s CPU      0.85s WALL (     331 calls)

     General routines
     calbec       :      0.70s CPU      0.72s WALL (     331 calls)
     fft          :     53.53s CPU     53.96s WALL (     776 calls)
     ffts         :      5.87s CPU      5.88s WALL (     102 calls)
     fftw         :     92.23s CPU     92.59s WALL (    3746 calls)
 
     Parallel routines
     fft_scatt_xy :     28.21s CPU     28.28s WALL (    4624 calls)
     fft_scatt_yz :     55.92s CPU     56.42s WALL (    4624 calls)
 
     PWSCF        :   3m58.38s CPU   4m 3.71s WALL

 
   This run was terminated on:  13:50:39  17Jan2022            

=------------------------------------------------------------------------------=
   JOB DONE.
=------------------------------------------------------------------------------=
