
 Primary working directories    : /global/cscratch1/sd/aannabe
 Secondary working directories  : /global/cscratch1/sd/aannabe
 Wavefunction directory         : /global/homes/a/aannabe/wfu/
 Main file repository           : /global/cscratch1/sd/aannabe/

 SHA1      : 19cd028119e0e09f93f0674bd8af7968d9b3eff6
 NAME      : 2015.1.36
 ARCHNAME  : linux/x86_64
 FC        : /opt/cray/pe/craype/2.5.14/bin/ftn
 BLASLIB   : -L/opt/intel/compilers_and_libraries_2018.1.163/linux/mkl/lib/intel64 -Wl,-_start-group -lmkl_intel_ilp64 -lmkl_intel_thread -lmkl_core -Wl,-_end-group -liomp5
 id        : lbl

 Nodes     nprocs
 nid01516    23
 Number of processes for MPI-2 version of Molpro:   nprocs(total)=   24   nprocs(compute)=   23   nprocs(helper)=    1

 Using customized tuning parameters: mindgm=7; mindgv=16; mindgc=1; mindgr=1; noblas=0; minvec=7
 default implementation of scratch files=sf  

 ***,Calculation for Ag atom, singlet and triplet
 memory,512,m
 geometry={
 1
 Pd
 Pd  0.0 0.0 0.0
 }
 
 basis={
 Including file /global/cscratch1/sd/aannabe/repos/heavy_element_ecps/Pd/arep/atoms/LANL2/basis/lanl2
 Including file /global/cscratch1/sd/aannabe/repos/heavy_element_ecps/Pd/arep/atoms/LANL2/basis/aug-cc-pwCVTZ.basis
 }
 
 Including file /global/cscratch1/sd/aannabe/repos/heavy_element_ecps/Pd/arep/atoms/LANL2/basis/states.proc
 
 do i=1,1
     if (i.eq.1) then
         Idten
     else if (i.eq.2) then
         EAs2d9
     else if (i.eq.3) then
         Is1d9
     else if (i.eq.4) then
         Is2d8
     else if (i.eq.5) then
         IId9
     else if (i.eq.6) then
         IIs1d8
     else if (i.eq.7) then
         IIId8
     else if (i.eq.8) then
         IVd7
     else if (i.eq.9) then
         Vd6
     else if (i.eq.10) then
         VId5
     else if (i.eq.11) then
         XIKr
     else if (i.eq.12) then
         XIVp3
     else if (i.eq.13) then
         XVIIs2
     endif
     scf(i)=energy
     _CC_NORM_MAX=2.0
    {rccsd(t),maxit=100;core}
     ccsd(i)=energy
 enddo
 
 table,scf,ccsd
 type,csv
 save

 Variables initialized (889), CPU time= 0.01 sec
 Commands  initialized (702), CPU time= 0.01 sec, 572 directives.
 Default parameters read. Elapsed time= 0.21 sec

 Checking input...
 Passed
1


                                         ***  PROGRAM SYSTEM MOLPRO  ***
                                       Copyright, TTI GmbH Stuttgart, 2015
                                    Version 2015.1 linked Dec 29 2018 15:55:43


 **********************************************************************************************************************************
 LABEL *   Calculation for Ag atom, singlet and triplet                                  
  64 bit mpp version                                                                     DATE: 27-May-21          TIME: 09:31:08  
 **********************************************************************************************************************************

 SHA1:             19cd028119e0e09f93f0674bd8af7968d9b3eff6
 **********************************************************************************************************************************

Geometry recognized as XYZ


 Variable memory set to  512000000 words,  buffer space   230000 words

 SETTING BASIS          =    USERDEF

 DO I                   =         1.00000000   

 Running procedure=IDTEN


 Recomputing integrals since basis changed


 Using spherical harmonics



 PROGRAM * SEWARD (Integral evaluation for generally contracted gaussian basis sets)     Author: Roland Lindh, 1990

 Geometry written to block  1 of record 700

 Orientation using atomic masses  
 Molecule type: Atom
 Symmetry elements: X,Y,Z
 Rotational constants:       0.0000000      0.0000000      0.0000000 GHz  (calculated with average atomic masses)

 Point group  D2h 



 ATOMIC COORDINATES

 NR  ATOM    CHARGE       X              Y              Z

   1  PD     18.00    0.000000000    0.000000000    0.000000000

 NUCLEAR CHARGE:                   18
 NUMBER OF PRIMITIVE AOS:         285
 NUMBER OF SYMMETRY AOS:          238
 NUMBER OF CONTRACTIONS:          238   (  72Ag  +  31B3u +  31B2u +  23B1g +  31B1u +  23B2g +  23B3g +   4Au  )
 NUMBER OF CORE ORBITALS:           4   (   1Ag  +   1B3u +   1B2u +   0B1g +   1B1u +   0B2g +   0B3g +   0Au  )
 NUMBER OF VALENCE ORBITALS:        6   (   3Ag  +   0B3u +   0B2u +   1B1g +   0B1u +   1B2g +   1B3g +   0Au  )


 NUCLEAR REPULSION ENERGY    0.00000000

 EXTRA SYMMETRY OF AOS IN SYMMETRY 1:   1 1 1 1 1 1 1 1 1 1   1 1 1 1 1 1 1 1 1 1   1 1 1 1 1 1 1 1 1 2   3 2 3 2 3 2 3 2 3 2
                                        3 2 3 2 3 2 3 2 3 2   3 2 3 2 3 2 3 2 3 2   3 2 3 4 5 6 4 5 6 4   5 6
 EXTRA SYMMETRY OF AOS IN SYMMETRY 2:   1 1 1 1 1 1 1 1 1 1   1 1 1 1 1 1 1 1 1 1   1 1 1 2 3 2 3 2 3 2   3
 EXTRA SYMMETRY OF AOS IN SYMMETRY 3:   1 1 1 1 1 1 1 1 1 1   1 1 1 1 1 1 1 1 1 1   1 1 1 2 3 2 3 2 3 2   3
 EXTRA SYMMETRY OF AOS IN SYMMETRY 4:   1 1 1 1 1 1 1 1 1 1   1 1 1 1 1 1 1 2 3 2   3 2 3
 EXTRA SYMMETRY OF AOS IN SYMMETRY 5:   1 1 1 1 1 1 1 1 1 1   1 1 1 1 1 1 1 1 1 1   1 1 1 2 3 2 3 2 3 2   3
 EXTRA SYMMETRY OF AOS IN SYMMETRY 6:   1 1 1 1 1 1 1 1 1 1   1 1 1 1 1 1 1 2 3 2   3 2 3
 EXTRA SYMMETRY OF AOS IN SYMMETRY 7:   1 1 1 1 1 1 1 1 1 1   1 1 1 1 1 1 1 2 3 2   3 2 3

 Eigenvalues of metric

         1 0.199E-05 0.951E-05 0.951E-05 0.294E-04 0.121E-03 0.307E-03 0.307E-03 0.364E-03
         2 0.984E-06 0.472E-03 0.163E-02 0.409E-02 0.952E-02 0.187E-01 0.302E-01 0.519E-01
         3 0.984E-06 0.472E-03 0.163E-02 0.409E-02 0.952E-02 0.187E-01 0.302E-01 0.519E-01
         4 0.951E-05 0.307E-03 0.302E-02 0.107E-01 0.287E-01 0.531E-01 0.105E+00 0.148E+00
         5 0.984E-06 0.472E-03 0.163E-02 0.409E-02 0.952E-02 0.187E-01 0.302E-01 0.519E-01
         6 0.951E-05 0.307E-03 0.302E-02 0.107E-01 0.287E-01 0.531E-01 0.105E+00 0.148E+00
         7 0.951E-05 0.307E-03 0.302E-02 0.107E-01 0.287E-01 0.531E-01 0.105E+00 0.148E+00
         8 0.941E-01 0.387E+00 0.119E+01 0.233E+01


 Contracted 2-electron integrals neglected if value below      1.0D-13

 Warning: maximum contribution to expansion of semi-local PP integrals   0.3D+10

 AO integral compression algorithm  1   Integral accuracy      1.0D-13

     392.167 MB (compressed) written to integral file ( 46.2%)

     Node minimum: 2.884 MB, node maximum: 55.050 MB


 NUMBER OF SORTED TWO-ELECTRON INTEGRALS:    2298651.     BUFFER LENGTH:  32768
 NUMBER OF SEGMENTS:   1  SEGMENT LENGTH:    2298651      RECORD LENGTH: 524288

 Memory used in sort:       2.86 MW

 SORT1 READ   105933892. AND WROTE     1456892. INTEGRALS IN      5 RECORDS. CPU TIME:     2.46 SEC, REAL TIME:     2.52 SEC
 SORT2 READ    34215741. AND WROTE    53264680. INTEGRALS IN   1219 RECORDS. CPU TIME:     0.33 SEC, REAL TIME:     0.40 SEC

 Node minimum:     2288883.  Node maximum:     2342907. integrals

 OPERATOR DM      FOR CENTER  0  COORDINATES:    0.000000    0.000000    0.000000


 **********************************************************************************************************************************
 DATASETS  * FILE   NREC   LENGTH (MB)   RECORD NAMES
              1      19       20.35       500      610      700      900      950      970     1000      129      960     1100   
                                          VAR    BASINP    GEOM    SYMINP    ZMAT    AOBASIS   BASIS     P2S    ABASIS      S 
                                         1400     1410     1420     1200     1210     1080     1600     1650     1700   
                                           T        V       ECP      H0       H01     AOSYM     SMH    MOLCAS    OPER   

 PROGRAMS   *        TOTAL       INT
 CPU TIMES  *        24.47     22.43
 REAL TIME  *        26.18 SEC
 DISK USED  *       841.15 MB      
 GA USED    *         0.00 MB       (max)       0.00 MB       (current)
 **********************************************************************************************************************************


 PROGRAM * RHF-SCF (CLOSED SHELL)       Authors: W. Meyer, H.-J. Werner


 NUMBER OF ELECTRONS:       9+    9-    SPACE SYMMETRY=1    SPIN SYMMETRY: Singlet 
 CONVERGENCE THRESHOLDS:    1.00E-05 (Density)    1.00E-07 (Energy)
 MAX. NUMBER OF ITERATIONS:       60
 INTERPOLATION TYPE:            DIIS
 INTERPOLATION STEPS:              2 (START)      1 (STEP)
 LEVEL SHIFTS:                  0.00 (CLOSED)  0.00 (OPEN) 

 Number of closed-shell orbitals:    9 (   3   1   1   1   1   1   1   0 )


 
 Extra symmetries of mos in symmetry 1:   1   3   2
 Orbital guess generated from atomic densities. Full valence occupancy:    4   1   1   1   1   1   1   0


 Molecular orbital dump at record        4202.2

 ITERATION    DDIFF          GRAD             ENERGY        2-EL.EN.            DIPOLE MOMENTS         DIIS   ORB.
    1      0.000D+00      0.000D+00      -125.92191618    206.161938    0.00000    0.00000    0.00000    0    start
    2      0.000D+00      0.131D-01      -125.92478211    197.761616    0.00000    0.00000    0.00000    1    diag
    3      0.173D-01      0.131D-01      -125.95432476    201.875202    0.00000    0.00000    0.00000    2    diag
    4      0.678D-02      0.174D-03      -125.95433439    201.803030    0.00000    0.00000    0.00000    3    diag
    5      0.311D-03      0.319D-04      -125.95433466    201.808402    0.00000    0.00000    0.00000    4    diag
    6      0.816D-04      0.188D-05      -125.95433467    201.808103    0.00000    0.00000    0.00000    5    diag
    7      0.799D-05      0.266D-06      -125.95433467    201.808202    0.00000    0.00000    0.00000    0    orth

 Final occupancy:   3   1   1   1   1   1   1   0

 !RHF STATE 1.1 Energy               -125.954334665569
 Nuclear energy                         0.00000000
 One-electron energy                 -226.85843564
 Two-electron energy                  100.90410098
 Virial quotient                       -2.66263312
 !RHF STATE 1.1 Dipole moment           0.00000000     0.00000000     0.00000000
 Dipole moment /Debye                   0.00000000     0.00000000     0.00000000

 ELECTRON ORBITALS
 =================


   Orb  Occ    Energy  Couls-En    Coefficients

                                   1 1s      1 1s      1 1s      1 1s      1 1s      1 1s      1 1s      1 1s      1 1s      1 1s   
                                   1 1s      1 1s      1 1s      1 1s      1 1s      1 1s      1 1s      1 1s      1 1s      1 1s   
                                   1 1s      1 1s      1 1s      1 1s      1 1s      1 1s      1 1s      1 1s      1 1s      1 3d0  
                                   1 3d2+    1 3d0     1 3d2+    1 3d0     1 3d2+    1 3d0     1 3d2+    1 3d0     1 3d2+    1 3d0  
                                   1 3d2+    1 3d0     1 3d2+    1 3d0     1 3d2+    1 3d0     1 3d2+    1 3d0     1 3d2+    1 3d0  
                                   1 3d2+    1 3d0     1 3d2+    1 3d0     1 3d2+    1 3d0     1 3d2+    1 3d0     1 3d2+    1 3d0  
                                   1 3d2+    1 3d0     1 3d2+    1 5g0     1 5g4+    1 5g2+    1 5g0     1 5g4+    1 5g2+    1 5g0  
                                   1 5g4+    1 5g2+ 

   1.1   2    -3.7771  -19.9430  0.000000 -0.000000  0.000000 -0.000000  0.000000 -0.000001  0.000002 -0.000006  0.000019 -0.000054
                                 0.000144 -0.000378  0.000971 -0.002555  0.006490 -0.018018  0.047618 -0.129516  0.240351 -0.078162
                                 0.559041  0.440976  0.484386  0.050006 -0.025144  0.010860 -0.998991  0.263958 -0.002952 -0.000000
                                -0.000000  0.000000  0.000000 -0.000000 -0.000000  0.000000  0.000000 -0.000000 -0.000000  0.000000
                                 0.000000 -0.000000 -0.000000  0.000000  0.000000 -0.000000 -0.000000 -0.000000 -0.000000 -0.000000
                                -0.000000  0.000000  0.000000 -0.000000 -0.000000  0.000000  0.000000  0.000000  0.000000  0.000000
                                 0.000000 -0.000000 -0.000000 -0.000000  0.000000 -0.000000  0.000000  0.000000  0.000000 -0.000000
                                 0.000000 -0.000000

   2.1   2    -0.3293  -11.1102  0.000000 -0.000000  0.000000 -0.000000  0.000000 -0.000000  0.000000 -0.000000  0.000000 -0.000000
                                 0.000000 -0.000000  0.000000 -0.000000  0.000000 -0.000000  0.000000 -0.000000  0.000000 -0.000000
                                 0.000000  0.000000  0.000000 -0.000000 -0.000000 -0.000000 -0.000000  0.000000 -0.000000  0.000000
                                -0.000000 -0.000002  0.000004  0.000002 -0.000004 -0.000040  0.000087 -0.000105  0.000227 -0.000133
                                 0.000287 -0.002833  0.006140  0.008725 -0.018908 -0.006048  0.013106  0.047271 -0.102441  0.134984
                                -0.292522  0.139506 -0.302321  0.090444 -0.196000  0.032203 -0.069787  0.055921 -0.121187  0.030611
                                -0.066338  0.000997 -0.002160  0.000000 -0.000000 -0.000000 -0.000000 -0.000000  0.000000  0.000000
                                 0.000000 -0.000000

   3.1   2    -0.3293  -11.1102  0.000000 -0.000000  0.000000 -0.000000  0.000000 -0.000000  0.000000 -0.000000  0.000000 -0.000000
                                 0.000000 -0.000000  0.000000 -0.000000  0.000000 -0.000000  0.000000 -0.000000  0.000000 -0.000000
                                -0.000000  0.000000  0.000000 -0.000000  0.000000 -0.000000  0.000000 -0.000000  0.000000 -0.000000
                                -0.000000  0.000004  0.000002 -0.000004 -0.000002  0.000087  0.000040  0.000227  0.000105  0.000287
                                 0.000133  0.006140  0.002833 -0.018908 -0.008725  0.013106  0.006048 -0.102441 -0.047272 -0.292522
                                -0.134984 -0.302321 -0.139506 -0.196000 -0.090444 -0.069788 -0.032203 -0.121186 -0.055921 -0.066338
                                -0.030611 -0.002160 -0.000997 -0.000000 -0.000000 -0.000000  0.000000  0.000000  0.000000 -0.000000
                                -0.000000 -0.000000

   4.1   0     0.0093   -3.0594 -0.000000  0.000000 -0.000000  0.000000 -0.000000  0.000000 -0.000000  0.000000 -0.000001  0.000002
                                -0.000006  0.000015 -0.000038  0.000108 -0.000284  0.000942 -0.002779  0.008742 -0.013745 -0.040544
                                -0.248448  0.227671  0.049557 -0.148991  0.509792 -0.729630  0.266025 -0.366281  1.381016 -0.000000
                                -0.000000  0.000000  0.000000 -0.000000  0.000000  0.000000 -0.000000 -0.000000  0.000000  0.000000
                                -0.000000  0.000000  0.000000 -0.000000 -0.000000 -0.000000  0.000000 -0.000001  0.000001 -0.000001
                                 0.000000  0.000000 -0.000000 -0.000000 -0.000000  0.000000  0.000000  0.000001 -0.000001  0.000001
                                -0.000001  0.000000 -0.000000 -0.000000 -0.000000 -0.000000  0.000000  0.000000  0.000000 -0.000000
                                -0.000000 -0.000000

   5.1   0     0.0606   -3.2959  0.000000 -0.000000  0.000000 -0.000000  0.000000 -0.000000  0.000001 -0.000002  0.000007 -0.000019
                                 0.000051 -0.000133  0.000342 -0.000881  0.002216 -0.005785  0.014717 -0.038950  0.092683 -0.290876
                                -0.656767  1.259038  0.687564 -0.631838  1.476508 -3.548334  0.559541 -1.277961  2.299268 -0.000000
                                -0.000000  0.000000  0.000000 -0.000000 -0.000000  0.000000  0.000000 -0.000000 -0.000000  0.000000
                                 0.000000 -0.000000 -0.000000  0.000000  0.000000 -0.000000 -0.000000 -0.000002 -0.000001 -0.000002
                                -0.000001  0.000001  0.000000 -0.000001 -0.000000  0.000002  0.000001  0.000001  0.000001  0.000002
                                 0.000001 -0.000004 -0.000003 -0.000000  0.000000  0.000000  0.000000  0.000000  0.000000 -0.000000
                                 0.000000 -0.000000

                                   1 2px     1 2px     1 2px     1 2px     1 2px     1 2px     1 2px     1 2px     1 2px     1 2px  
                                   1 2px     1 2px     1 2px     1 2px     1 2px     1 2px     1 2px     1 2px     1 2px     1 2px  
                                   1 2px     1 2px     1 2px     1 4f1+    1 4f3+    1 4f1+    1 4f3+    1 4f1+    1 4f3+    1 4f1+ 
                                   1 4f3+ 

   1.2   2    -2.3672  -16.8200  0.000000 -0.000000  0.000000 -0.000001  0.000005 -0.000020  0.000073 -0.000243  0.000700 -0.001962
                                 0.003474 -0.007247 -0.024992  0.112773 -1.739590  0.263431  0.293574  0.049456 -0.007183  0.003661
                                 1.519469  0.553713 -0.001139 -0.000000  0.000000  0.000000 -0.000000  0.000000 -0.000000  0.000000
                                 0.000000

   2.2   0     0.0273   -1.8311  0.000000 -0.000000  0.000000 -0.000000  0.000000 -0.000002  0.000007 -0.000022  0.000065 -0.000174
                                 0.000485 -0.001247  0.004402 -0.015365  0.344704  0.036210  0.033914 -0.074321  0.220320 -0.529729
                                -0.356033 -0.051358  1.309540 -0.000000  0.000000 -0.000000  0.000000 -0.000000  0.000000  0.000000
                                -0.000000

   3.2   0     0.0983   -2.8689 -0.000000  0.000000 -0.000000  0.000000 -0.000002  0.000008 -0.000031  0.000102 -0.000301  0.000825
                                -0.001980  0.004889 -0.008940  0.026966 -0.675538 -0.147485 -0.147464  0.253718 -0.580239  2.034952
                                 0.737870  0.046259 -1.163390 -0.000000  0.000000 -0.000000  0.000000 -0.000000  0.000000  0.000000
                                -0.000000

                                   1 2py     1 2py     1 2py     1 2py     1 2py     1 2py     1 2py     1 2py     1 2py     1 2py  
                                   1 2py     1 2py     1 2py     1 2py     1 2py     1 2py     1 2py     1 2py     1 2py     1 2py  
                                   1 2py     1 2py     1 2py     1 4f1-    1 4f3-    1 4f1-    1 4f3-    1 4f1-    1 4f3-    1 4f1- 
                                   1 4f3- 

   1.3   2    -2.3672  -16.8200  0.000000 -0.000000  0.000000 -0.000001  0.000005 -0.000020  0.000073 -0.000243  0.000700 -0.001962
                                 0.003474 -0.007247 -0.024992  0.112773 -1.739590  0.263431  0.293574  0.049456 -0.007183  0.003661
                                 1.519469  0.553713 -0.001139  0.000000 -0.000000  0.000000 -0.000000  0.000000 -0.000000 -0.000000
                                 0.000000

   2.3   0     0.0273   -1.8311  0.000000 -0.000000  0.000000 -0.000000  0.000000 -0.000002  0.000007 -0.000022  0.000065 -0.000174
                                 0.000485 -0.001247  0.004402 -0.015365  0.344704  0.036210  0.033914 -0.074321  0.220320 -0.529729
                                -0.356033 -0.051358  1.309540 -0.000000  0.000000  0.000000  0.000000 -0.000000  0.000000  0.000000
                                -0.000000

   3.3   0     0.0983   -2.8689 -0.000000  0.000000 -0.000000  0.000000 -0.000002  0.000008 -0.000031  0.000102 -0.000301  0.000825
                                -0.001980  0.004889 -0.008940  0.026966 -0.675538 -0.147485 -0.147464  0.253718 -0.580239  2.034952
                                 0.737870  0.046259 -1.163390  0.000000  0.000000  0.000000  0.000000 -0.000000  0.000000  0.000000
                                -0.000000

                                   1 3d2-    1 3d2-    1 3d2-    1 3d2-    1 3d2-    1 3d2-    1 3d2-    1 3d2-    1 3d2-    1 3d2- 
                                   1 3d2-    1 3d2-    1 3d2-    1 3d2-    1 3d2-    1 3d2-    1 3d2-    1 5g2-    1 5g4-    1 5g2- 
                                   1 5g4-    1 5g2-    1 5g4- 

   1.4   2    -0.3293  -11.1102  0.000000 -0.000004  0.000005 -0.000096 -0.000250 -0.000316 -0.006762  0.020824 -0.014434  0.112821
                                 0.322164  0.332957  0.215861  0.076859  0.133467  0.073060  0.002379  0.000000 -0.000000  0.000000
                                 0.000000  0.000000 -0.000000

   2.4   0     0.1009   -2.2237  0.000001 -0.000006  0.000031 -0.000119  0.000452 -0.001261  0.004311 -0.013655  0.062099  0.545247
                                 0.451431 -0.190846  0.186297 -0.477023 -0.409113 -0.611393  1.256305  0.000000 -0.000000  0.000000
                                 0.000000 -0.000000  0.000000

   3.4   0     0.3435   -3.3225 -0.000002  0.000020 -0.000101  0.000435 -0.001305  0.004216 -0.009985  0.032010 -0.191679 -1.824035
                                -1.664201  0.453644 -0.826625  1.896737  1.240527  1.949853 -0.890582  0.000000 -0.000000 -0.000000
                                 0.000000  0.000000  0.000000

                                   1 2pz     1 2pz     1 2pz     1 2pz     1 2pz     1 2pz     1 2pz     1 2pz     1 2pz     1 2pz  
                                   1 2pz     1 2pz     1 2pz     1 2pz     1 2pz     1 2pz     1 2pz     1 2pz     1 2pz     1 2pz  
                                   1 2pz     1 2pz     1 2pz     1 4f0     1 4f2+    1 4f0     1 4f2+    1 4f0     1 4f2+    1 4f0  
                                   1 4f2+ 

   1.5   2    -2.3672  -16.8200  0.000000 -0.000000  0.000000 -0.000001  0.000005 -0.000020  0.000073 -0.000243  0.000700 -0.001962
                                 0.003474 -0.007247 -0.024992  0.112773 -1.739590  0.263431  0.293574  0.049456 -0.007183  0.003661
                                 1.519469  0.553713 -0.001139 -0.000000  0.000000  0.000000 -0.000000  0.000000 -0.000000  0.000000
                                -0.000000

   2.5   0     0.0273   -1.8311  0.000000 -0.000000  0.000000 -0.000000  0.000000 -0.000002  0.000007 -0.000022  0.000065 -0.000174
                                 0.000485 -0.001247  0.004402 -0.015365  0.344704  0.036210  0.033914 -0.074321  0.220320 -0.529729
                                -0.356033 -0.051358  1.309540 -0.000000  0.000000  0.000000  0.000000 -0.000000  0.000000  0.000000
                                 0.000000

   3.5   0     0.0983   -2.8689 -0.000000  0.000000 -0.000000  0.000000 -0.000002  0.000008 -0.000031  0.000102 -0.000301  0.000825
                                -0.001980  0.004889 -0.008940  0.026966 -0.675538 -0.147485 -0.147464  0.253718 -0.580239  2.034952
                                 0.737870  0.046259 -1.163390 -0.000000  0.000000  0.000000  0.000000 -0.000000  0.000000  0.000000
                                -0.000000

                                   1 3d1+    1 3d1+    1 3d1+    1 3d1+    1 3d1+    1 3d1+    1 3d1+    1 3d1+    1 3d1+    1 3d1+ 
                                   1 3d1+    1 3d1+    1 3d1+    1 3d1+    1 3d1+    1 3d1+    1 3d1+    1 5g1+    1 5g3+    1 5g1+ 
                                   1 5g3+    1 5g1+    1 5g3+ 

   1.6   2    -0.3293  -11.1102  0.000000 -0.000004  0.000005 -0.000096 -0.000250 -0.000316 -0.006762  0.020824 -0.014434  0.112821
                                 0.322164  0.332957  0.215861  0.076859  0.133467  0.073060  0.002379  0.000000 -0.000000 -0.000000
                                 0.000000  0.000000 -0.000000

   2.6   0     0.1009   -2.2237  0.000001 -0.000006  0.000031 -0.000119  0.000452 -0.001261  0.004311 -0.013655  0.062099  0.545247
                                 0.451431 -0.190846  0.186297 -0.477023 -0.409113 -0.611393  1.256305  0.000000 -0.000000 -0.000000
                                 0.000000 -0.000000  0.000000

   3.6   0     0.3435   -3.3225 -0.000002  0.000020 -0.000101  0.000435 -0.001305  0.004216 -0.009985  0.032010 -0.191679 -1.824035
                                -1.664201  0.453644 -0.826625  1.896737  1.240527  1.949853 -0.890582  0.000000 -0.000000 -0.000000
                                 0.000000  0.000000 -0.000000

                                   1 3d1-    1 3d1-    1 3d1-    1 3d1-    1 3d1-    1 3d1-    1 3d1-    1 3d1-    1 3d1-    1 3d1- 
                                   1 3d1-    1 3d1-    1 3d1-    1 3d1-    1 3d1-    1 3d1-    1 3d1-    1 5g1-    1 5g3-    1 5g1- 
                                   1 5g3-    1 5g1-    1 5g3- 

   1.7   2    -0.3293  -11.1102  0.000000 -0.000004  0.000005 -0.000096 -0.000250 -0.000316 -0.006762  0.020824 -0.014434  0.112821
                                 0.322164  0.332957  0.215861  0.076859  0.133467  0.073060  0.002379  0.000000 -0.000000  0.000000
                                 0.000000  0.000000 -0.000000

   2.7   0     0.1009   -2.2237  0.000001 -0.000006  0.000031 -0.000119  0.000452 -0.001261  0.004311 -0.013655  0.062099  0.545247
                                 0.451431 -0.190846  0.186297 -0.477023 -0.409113 -0.611393  1.256305  0.000000  0.000000  0.000000
                                 0.000000  0.000000  0.000000

   3.7   0     0.3435   -3.3225 -0.000002  0.000020 -0.000101  0.000435 -0.001305  0.004216 -0.009985  0.032010 -0.191679 -1.824035
                                -1.664201  0.453644 -0.826625  1.896737  1.240527  1.949853 -0.890582  0.000000 -0.000000  0.000000
                                 0.000000  0.000000  0.000000

                                   1 4f2-    1 4f2-    1 4f2-    1 4f2- 

   1.8   0     0.8886   -4.2778 -0.006845  0.133650 -0.229999  1.115928

   2.8   0     2.0874   -5.3452  0.211716 -0.055581  1.276290 -0.768825

 HOMO      1.6    -0.329298 =      -8.9606eV
 LUMO      4.1     0.009290 =       0.2528eV
 LUMO-HOMO         0.338588 =       9.2134eV


 **********************************************************************************************************************************
 DATASETS  * FILE   NREC   LENGTH (MB)   RECORD NAMES
              1      19       20.38       500      610      700      900      950      970     1000      129      960     1100   
                                          VAR    BASINP    GEOM    SYMINP    ZMAT    AOBASIS   BASIS     P2S    ABASIS      S 
                                         1400     1410     1420     1200     1210     1080     1600     1650     1700   
                                           T        V       ECP      H0       H01     AOSYM     SMH    MOLCAS    OPER   

              2       5        5.57       200      700     1000      520     4202   
                                        OPTIONS   GEOM     BASIS   MCVARS     RHF  

 PROGRAMS   *        TOTAL       RHF       INT
 CPU TIMES  *        24.96      0.49     22.43
 REAL TIME  *        26.93 SEC
 DISK USED  *         1.45 GB      
 SF USED    *         0.04 MB      
 GA USED    *         0.00 MB       (max)       0.00 MB       (current)
 **********************************************************************************************************************************
 SETTING SCF(1)         =      -125.95433467  AU                              
 SETTING _CC_NORM_MAX   =         2.00000000                                  


 PROGRAM * CCSD (Restricted open-shell coupled cluster)     Authors: C. Hampel, H.-J. Werner, 1991, M. Deegan, P.J. Knowles, 1992


 Convergence thresholds:  THRVAR = 1.00D-08  THRDEN = 1.00D-06

 CCSD(T)     terms to be evaluated (factor= 1.000)


 Number of closed-shell orbitals:   9 (   3   1   1   1   1   1   1   0 )
 Number of external orbitals:     229 (  69  30  30  22  30  22  22   4 )

 Memory could be reduced to 28.23 Mwords without degradation in triples

 Number of N-1 electron functions:              18
 Number of N-2 electron functions:             153
 Number of singly external CSFs:               726
 Number of doubly external CSFs:            785643
 Total number of CSFs:                      786369

 Molecular orbitals read from record     4202.2  Type=RHF/CANONICAL (state 1.1)

 Integral transformation finished. Total CPU:   0.98 sec, npass=  1  Memory used:   4.56 MW

 Starting RMP2 calculation

 Wavefunction is spin-projected

 ITER.      SQ.NORM     CORR.ENERGY   TOTAL ENERGY   ENERGY CHANGE        DEN1      VAR(S)    VAR(P)  DIIS     TIME
   1      1.14419436    -0.77521941  -126.72955408    -0.77521941    -0.00136911  0.54D-12  0.52D-03  1  1     2.27
   2      1.14539600    -0.77666282  -126.73099749    -0.00144341    -0.00000353  0.22D-13  0.24D-05  2  2     2.36
   3      1.14546370    -0.77670293  -126.73103760    -0.00004011    -0.00000001  0.62D-15  0.11D-07  3  3     2.93
   4      1.14546554    -0.77670326  -126.73103792    -0.00000033    -0.00000000  0.14D-16  0.55D-10  4  4     3.24

 Norm of t1 vector:      0.00000433      S-energy:    -0.00000000      T1 diagnostic:  0.00000072
 Norm of t2 vector:      0.38139945      P-energy:    -0.77670326
                                         Alpha-Beta:  -0.53567754
                                         Alpha-Alpha: -0.12051286
                                         Beta-Beta:   -0.12051286

 Spin contamination <S**2-Sz**2-Sz>     0.00000000
  Reference energy                   -125.954334665569
  RHF-RMP2 correlation energy          -0.776703258725
 !RHF-RMP2 energy                    -126.731037924294
 (NB above energy spin projected)

 Starting RCCSD calculation

 ITER.      SQ.NORM     CORR.ENERGY   TOTAL ENERGY   ENERGY CHANGE        DEN1      VAR(S)    VAR(P)  DIIS     TIME
   1      1.11398387    -0.71491729  -126.66925196    -0.71491729    -0.01766468  0.24D-02  0.34D-02  1  1     3.93
   2      1.12176508    -0.72990517  -126.68423983    -0.01498788    -0.00087526  0.37D-04  0.32D-03  2  2     4.43
   3      1.12268630    -0.72997094  -126.68430560    -0.00006577    -0.00008928  0.61D-04  0.18D-04  3  3     4.98
   4      1.12334471    -0.73025470  -126.68458937    -0.00028376    -0.00000941  0.34D-05  0.35D-05  4  4     5.61
   5      1.12372975    -0.73035782  -126.68469248    -0.00010311    -0.00000090  0.70D-06  0.28D-06  5  5     6.16
   6      1.12382314    -0.73036850  -126.68470316    -0.00001068    -0.00000010  0.34D-07  0.40D-07  6  6     6.91
   7      1.12384706    -0.73036925  -126.68470391    -0.00000075    -0.00000002  0.23D-07  0.25D-08  6  1     7.45
   8      1.12385249    -0.73037049  -126.68470516    -0.00000125    -0.00000000  0.21D-08  0.21D-09  6  2     7.99
   9      1.12385354    -0.73036978  -126.68470445     0.00000071    -0.00000000  0.30D-09  0.64D-10  6  3     8.56

 Norm of t1 vector:      0.05167245      S-energy:    -0.00000007      T1 diagnostic:  0.00861207
                                                                       D1 diagnostic:  0.01602702
 Norm of t2 vector:      0.34811421      P-energy:    -0.73036971
                                         Alpha-Beta:  -0.52377127
                                         Alpha-Alpha: -0.10329922
                                         Beta-Beta:   -0.10329922

 Spin contamination <S**2-Sz**2-Sz>     0.00000000

 Memory could be reduced to 28.46 Mwords without degradation in triples
 

  Correlated core orbitals:             1.1       1.2       1.3       1.5
  Orbital energies:                    -3.7771   -2.3672   -2.3672   -2.3672
 
  RCCSD core-core energy               -0.114814886734
  RCCSD core-valence energy            -0.264822764746
  RCCSD valence correlation energy     -0.350732128367
 

 RESULTS
 =======

  Reference energy                   -125.954334665569
  RCCSD singles energy                 -0.000000069696
  RCCSD pair energy                    -0.730369710151
  RCCSD correlation energy             -0.730369779847
  Triples (T) contribution             -0.029761043903
  Total correlation energy             -0.760130823750
 
  RHF-RCCSD energy                   -126.684704445416
  RHF-RCCSD[T] energy                -126.715473211352
  RHF-RCCSD-T energy                 -126.714324206560
 !RHF-RCCSD(T) energy                -126.714465489319

 Program statistics:

 Available memory in ccsd:               511999162
 Min. memory needed in ccsd:               2366167
 Max. memory used in ccsd:                 3316864
 Max. memory used in cckext:               2577033 ( 9 integral passes)
 Max. memory used in cckint:               4564618 ( 1 integral passes)



 **********************************************************************************************************************************
 DATASETS  * FILE   NREC   LENGTH (MB)   RECORD NAMES
              1      19       20.38       500      610      700      900      950      970     1000      129      960     1100   
                                          VAR    BASINP    GEOM    SYMINP    ZMAT    AOBASIS   BASIS     P2S    ABASIS      S 
                                         1400     1410     1420     1200     1210     1080     1600     1650     1700   
                                           T        V       ECP      H0       H01     AOSYM     SMH    MOLCAS    OPER   

              2       5        5.57       200      700     1000      520     4202   
                                        OPTIONS   GEOM     BASIS   MCVARS     RHF  

 PROGRAMS   *        TOTAL  RCCSD(T)       RHF       INT
 CPU TIMES  *        40.33     15.25      0.49     22.43
 REAL TIME  *        50.45 SEC
 DISK USED  *         3.70 GB      
 SF USED    *       418.43 MB      
 GA USED    *         0.00 MB       (max)       0.00 MB       (current)
 **********************************************************************************************************************************
 SETTING CCSD(1)        =      -126.71446549  AU                              
 Output type csv         
                                                                                                                                                                                                                                                                

        SCF,CCSD
   -125.9543347,   -126.7144655
                                                  

 RCCSD(T)/USERDEF energy=   -126.714465489319

        RCCSD(T)        RHF-SCF 
   -126.71446549   -125.95433467
 **********************************************************************************************************************************
 Molpro calculation terminated
 Variable memory released
