/global/cscratch1/sd/bkincaid/cutoffs/Pd/250-610/runs/scf_330

     Program PWSCF v.6.4.1 starts on 17Jan2022 at 15:42:54 

     This program is part of the open-source Quantum ESPRESSO suite
     for quantum simulation of materials; please cite
         "P. Giannozzi et al., J. Phys.:Condens. Matter 21 395502 (2009);
         "P. Giannozzi et al., J. Phys.:Condens. Matter 29 465901 (2017);
          URL http://www.quantum-espresso.org", 
     in publications or presentations arising from this work. More details at
     http://www.quantum-espresso.org/quote

     Parallel version (MPI & OpenMP), running on      32 processor cores
     Number of MPI processes:                32
     Threads/MPI process:                     1

     MPI processes distributed on     1 nodes
     R & G space division:  proc/nbgrp/npool/nimage =      32
     Reading input from scf_330.in

     Current dimensions of program PWSCF are:
     Max number of different atomic species (ntypx) = 10
     Max number of k-points (npk) =  40000
     Max angular momentum in pseudopotentials (lmaxx) =  3

     IMPORTANT: XC functional enforced from input :
     Exchange-correlation      = PBE ( 1  4  3  4 0 0)
     Any further DFT definition will be discarded
     Please, verify this is what you really want


     gamma-point specific algorithms are used

     Subspace diagonalization in iterative solution of the eigenvalue problem:
     one sub-group per band group will be used
     scalapack distributed-memory algorithm (size of sub-group:  4*  4 procs)

     Message from routine setup:
     DEPRECATED: symmetry with ibrav=0, use correct ibrav instead
 
     Parallelization info
     --------------------
     sticks:   dense  smooth     PW     G-vecs:    dense   smooth      PW
     Min        1687    1687    421               295112   295112   36898
     Max        1690    1690    424               295122   295122   36908
     Sum       54029   54029  13517              9443803  9443803 1180863
 


     bravais-lattice index     =            0
     lattice parameter (alat)  =      22.6767  a.u.
     unit-cell volume          =   11661.1222 (a.u.)^3
     number of atoms/cell      =            1
     number of atomic types    =            1
     number of electrons       =        18.00 (up:   9.00, down:   9.00)
     number of Kohn-Sham states=           12
     kinetic-energy cutoff     =     330.0000  Ry
     charge density cutoff     =    1320.0000  Ry
     convergence threshold     =      1.0E-06
     mixing beta               =       0.7000
     number of iterations used =            8  plain     mixing
     Exchange-correlation      = PBE ( 1  4  3  4 0 0)

     celldm(1)=  22.676714  celldm(2)=   0.000000  celldm(3)=   0.000000
     celldm(4)=   0.000000  celldm(5)=   0.000000  celldm(6)=   0.000000

     crystal axes: (cart. coord. in units of alat)
               a(1) = (   1.000000   0.000000   0.000000 )  
               a(2) = (   0.000000   1.000000   0.000000 )  
               a(3) = (   0.000000   0.000000   1.000000 )  

     reciprocal axes: (cart. coord. in units 2 pi/alat)
               b(1) = (  1.000000  0.000000  0.000000 )  
               b(2) = (  0.000000  1.000000  0.000000 )  
               b(3) = (  0.000000  0.000000  1.000000 )  


     PseudoPot. # 1 for Pd read from file:
     ./Pd.upf
     MD5 check sum: 2db6b29890942ac22920366b342684d2
     Pseudo is Norm-conserving, Zval = 18.0
     Generated by new atomic code, or converted to UPF format
     Using radial grid of 1174 points,  2 beta functions with: 
                l(1) =   0
                l(2) =   2

     atomic species   valence    mass     pseudopotential
        Pd            18.00   106.42000     Pd( 1.00)

     Starting magnetic structure 
     atomic species   magnetization
        Pd           0.500

     48 Sym. Ops., with inversion, found


                                    s                        frac. trans.

      isym =  1     identity                                     

 cryst.   s( 1) = (     1          0          0      )
                  (     0          1          0      )
                  (     0          0          1      )

 cart.    s( 1) = (  1.0000000  0.0000000  0.0000000 )
                  (  0.0000000  1.0000000  0.0000000 )
                  (  0.0000000  0.0000000  1.0000000 )


      isym =  2     180 deg rotation - cart. axis [0,0,1]        

 cryst.   s( 2) = (    -1          0          0      )
                  (     0         -1          0      )
                  (     0          0          1      )

 cart.    s( 2) = ( -1.0000000  0.0000000  0.0000000 )
                  (  0.0000000 -1.0000000  0.0000000 )
                  (  0.0000000  0.0000000  1.0000000 )


      isym =  3     180 deg rotation - cart. axis [0,1,0]        

 cryst.   s( 3) = (    -1          0          0      )
                  (     0          1          0      )
                  (     0          0         -1      )

 cart.    s( 3) = ( -1.0000000  0.0000000  0.0000000 )
                  (  0.0000000  1.0000000  0.0000000 )
                  (  0.0000000  0.0000000 -1.0000000 )


      isym =  4     180 deg rotation - cart. axis [1,0,0]        

 cryst.   s( 4) = (     1          0          0      )
                  (     0         -1          0      )
                  (     0          0         -1      )

 cart.    s( 4) = (  1.0000000  0.0000000  0.0000000 )
                  (  0.0000000 -1.0000000  0.0000000 )
                  (  0.0000000  0.0000000 -1.0000000 )


      isym =  5     180 deg rotation - cart. axis [1,1,0]        

 cryst.   s( 5) = (     0          1          0      )
                  (     1          0          0      )
                  (     0          0         -1      )

 cart.    s( 5) = (  0.0000000  1.0000000  0.0000000 )
                  (  1.0000000  0.0000000  0.0000000 )
                  (  0.0000000  0.0000000 -1.0000000 )


      isym =  6     180 deg rotation - cart. axis [1,-1,0]       

 cryst.   s( 6) = (     0         -1          0      )
                  (    -1          0          0      )
                  (     0          0         -1      )

 cart.    s( 6) = (  0.0000000 -1.0000000  0.0000000 )
                  ( -1.0000000  0.0000000  0.0000000 )
                  (  0.0000000  0.0000000 -1.0000000 )


      isym =  7      90 deg rotation - cart. axis [0,0,-1]       

 cryst.   s( 7) = (     0         -1          0      )
                  (     1          0          0      )
                  (     0          0          1      )

 cart.    s( 7) = (  0.0000000  1.0000000  0.0000000 )
                  ( -1.0000000  0.0000000  0.0000000 )
                  (  0.0000000  0.0000000  1.0000000 )


      isym =  8      90 deg rotation - cart. axis [0,0,1]        

 cryst.   s( 8) = (     0          1          0      )
                  (    -1          0          0      )
                  (     0          0          1      )

 cart.    s( 8) = (  0.0000000 -1.0000000  0.0000000 )
                  (  1.0000000  0.0000000  0.0000000 )
                  (  0.0000000  0.0000000  1.0000000 )


      isym =  9     180 deg rotation - cart. axis [1,0,1]        

 cryst.   s( 9) = (     0          0          1      )
                  (     0         -1          0      )
                  (     1          0          0      )

 cart.    s( 9) = (  0.0000000  0.0000000  1.0000000 )
                  (  0.0000000 -1.0000000  0.0000000 )
                  (  1.0000000  0.0000000  0.0000000 )


      isym = 10     180 deg rotation - cart. axis [-1,0,1]       

 cryst.   s(10) = (     0          0         -1      )
                  (     0         -1          0      )
                  (    -1          0          0      )

 cart.    s(10) = (  0.0000000  0.0000000 -1.0000000 )
                  (  0.0000000 -1.0000000  0.0000000 )
                  ( -1.0000000  0.0000000  0.0000000 )


      isym = 11      90 deg rotation - cart. axis [0,1,0]        

 cryst.   s(11) = (     0          0         -1      )
                  (     0          1          0      )
                  (     1          0          0      )

 cart.    s(11) = (  0.0000000  0.0000000  1.0000000 )
                  (  0.0000000  1.0000000  0.0000000 )
                  ( -1.0000000  0.0000000  0.0000000 )


      isym = 12      90 deg rotation - cart. axis [0,-1,0]       

 cryst.   s(12) = (     0          0          1      )
                  (     0          1          0      )
                  (    -1          0          0      )

 cart.    s(12) = (  0.0000000  0.0000000 -1.0000000 )
                  (  0.0000000  1.0000000  0.0000000 )
                  (  1.0000000  0.0000000  0.0000000 )


      isym = 13     180 deg rotation - cart. axis [0,1,1]        

 cryst.   s(13) = (    -1          0          0      )
                  (     0          0          1      )
                  (     0          1          0      )

 cart.    s(13) = ( -1.0000000  0.0000000  0.0000000 )
                  (  0.0000000  0.0000000  1.0000000 )
                  (  0.0000000  1.0000000  0.0000000 )


      isym = 14     180 deg rotation - cart. axis [0,1,-1]       

 cryst.   s(14) = (    -1          0          0      )
                  (     0          0         -1      )
                  (     0         -1          0      )

 cart.    s(14) = ( -1.0000000  0.0000000  0.0000000 )
                  (  0.0000000  0.0000000 -1.0000000 )
                  (  0.0000000 -1.0000000  0.0000000 )


      isym = 15      90 deg rotation - cart. axis [-1,0,0]       

 cryst.   s(15) = (     1          0          0      )
                  (     0          0         -1      )
                  (     0          1          0      )

 cart.    s(15) = (  1.0000000  0.0000000  0.0000000 )
                  (  0.0000000  0.0000000  1.0000000 )
                  (  0.0000000 -1.0000000  0.0000000 )


      isym = 16      90 deg rotation - cart. axis [1,0,0]        

 cryst.   s(16) = (     1          0          0      )
                  (     0          0          1      )
                  (     0         -1          0      )

 cart.    s(16) = (  1.0000000  0.0000000  0.0000000 )
                  (  0.0000000  0.0000000 -1.0000000 )
                  (  0.0000000  1.0000000  0.0000000 )


      isym = 17     120 deg rotation - cart. axis [-1,-1,-1]     

 cryst.   s(17) = (     0          0          1      )
                  (     1          0          0      )
                  (     0          1          0      )

 cart.    s(17) = (  0.0000000  1.0000000  0.0000000 )
                  (  0.0000000  0.0000000  1.0000000 )
                  (  1.0000000  0.0000000  0.0000000 )


      isym = 18     120 deg rotation - cart. axis [-1,1,1]       

 cryst.   s(18) = (     0          0         -1      )
                  (    -1          0          0      )
                  (     0          1          0      )

 cart.    s(18) = (  0.0000000 -1.0000000  0.0000000 )
                  (  0.0000000  0.0000000  1.0000000 )
                  ( -1.0000000  0.0000000  0.0000000 )


      isym = 19     120 deg rotation - cart. axis [1,1,-1]       

 cryst.   s(19) = (     0          0         -1      )
                  (     1          0          0      )
                  (     0         -1          0      )

 cart.    s(19) = (  0.0000000  1.0000000  0.0000000 )
                  (  0.0000000  0.0000000 -1.0000000 )
                  ( -1.0000000  0.0000000  0.0000000 )


      isym = 20     120 deg rotation - cart. axis [1,-1,1]       

 cryst.   s(20) = (     0          0          1      )
                  (    -1          0          0      )
                  (     0         -1          0      )

 cart.    s(20) = (  0.0000000 -1.0000000  0.0000000 )
                  (  0.0000000  0.0000000 -1.0000000 )
                  (  1.0000000  0.0000000  0.0000000 )


      isym = 21     120 deg rotation - cart. axis [1,1,1]        

 cryst.   s(21) = (     0          1          0      )
                  (     0          0          1      )
                  (     1          0          0      )

 cart.    s(21) = (  0.0000000  0.0000000  1.0000000 )
                  (  1.0000000  0.0000000  0.0000000 )
                  (  0.0000000  1.0000000  0.0000000 )


      isym = 22     120 deg rotation - cart. axis [-1,1,-1]      

 cryst.   s(22) = (     0         -1          0      )
                  (     0          0         -1      )
                  (     1          0          0      )

 cart.    s(22) = (  0.0000000  0.0000000  1.0000000 )
                  ( -1.0000000  0.0000000  0.0000000 )
                  (  0.0000000 -1.0000000  0.0000000 )


      isym = 23     120 deg rotation - cart. axis [1,-1,-1]      

 cryst.   s(23) = (     0         -1          0      )
                  (     0          0          1      )
                  (    -1          0          0      )

 cart.    s(23) = (  0.0000000  0.0000000 -1.0000000 )
                  ( -1.0000000  0.0000000  0.0000000 )
                  (  0.0000000  1.0000000  0.0000000 )


      isym = 24     120 deg rotation - cart. axis [-1,-1,1]      

 cryst.   s(24) = (     0          1          0      )
                  (     0          0         -1      )
                  (    -1          0          0      )

 cart.    s(24) = (  0.0000000  0.0000000 -1.0000000 )
                  (  1.0000000  0.0000000  0.0000000 )
                  (  0.0000000 -1.0000000  0.0000000 )


      isym = 25     inversion                                    

 cryst.   s(25) = (    -1          0          0      )
                  (     0         -1          0      )
                  (     0          0         -1      )

 cart.    s(25) = ( -1.0000000  0.0000000  0.0000000 )
                  (  0.0000000 -1.0000000  0.0000000 )
                  (  0.0000000  0.0000000 -1.0000000 )


      isym = 26     inv. 180 deg rotation - cart. axis [0,0,1]   

 cryst.   s(26) = (     1          0          0      )
                  (     0          1          0      )
                  (     0          0         -1      )

 cart.    s(26) = (  1.0000000  0.0000000  0.0000000 )
                  (  0.0000000  1.0000000  0.0000000 )
                  (  0.0000000  0.0000000 -1.0000000 )


      isym = 27     inv. 180 deg rotation - cart. axis [0,1,0]   

 cryst.   s(27) = (     1          0          0      )
                  (     0         -1          0      )
                  (     0          0          1      )

 cart.    s(27) = (  1.0000000  0.0000000  0.0000000 )
                  (  0.0000000 -1.0000000  0.0000000 )
                  (  0.0000000  0.0000000  1.0000000 )


      isym = 28     inv. 180 deg rotation - cart. axis [1,0,0]   

 cryst.   s(28) = (    -1          0          0      )
                  (     0          1          0      )
                  (     0          0          1      )

 cart.    s(28) = ( -1.0000000  0.0000000  0.0000000 )
                  (  0.0000000  1.0000000  0.0000000 )
                  (  0.0000000  0.0000000  1.0000000 )


      isym = 29     inv. 180 deg rotation - cart. axis [1,1,0]   

 cryst.   s(29) = (     0         -1          0      )
                  (    -1          0          0      )
                  (     0          0          1      )

 cart.    s(29) = (  0.0000000 -1.0000000  0.0000000 )
                  ( -1.0000000  0.0000000  0.0000000 )
                  (  0.0000000  0.0000000  1.0000000 )


      isym = 30     inv. 180 deg rotation - cart. axis [1,-1,0]  

 cryst.   s(30) = (     0          1          0      )
                  (     1          0          0      )
                  (     0          0          1      )

 cart.    s(30) = (  0.0000000  1.0000000  0.0000000 )
                  (  1.0000000  0.0000000  0.0000000 )
                  (  0.0000000  0.0000000  1.0000000 )


      isym = 31     inv.  90 deg rotation - cart. axis [0,0,-1]  

 cryst.   s(31) = (     0          1          0      )
                  (    -1          0          0      )
                  (     0          0         -1      )

 cart.    s(31) = (  0.0000000 -1.0000000  0.0000000 )
                  (  1.0000000  0.0000000  0.0000000 )
                  (  0.0000000  0.0000000 -1.0000000 )


      isym = 32     inv.  90 deg rotation - cart. axis [0,0,1]   

 cryst.   s(32) = (     0         -1          0      )
                  (     1          0          0      )
                  (     0          0         -1      )

 cart.    s(32) = (  0.0000000  1.0000000  0.0000000 )
                  ( -1.0000000  0.0000000  0.0000000 )
                  (  0.0000000  0.0000000 -1.0000000 )


      isym = 33     inv. 180 deg rotation - cart. axis [1,0,1]   

 cryst.   s(33) = (     0          0         -1      )
                  (     0          1          0      )
                  (    -1          0          0      )

 cart.    s(33) = (  0.0000000  0.0000000 -1.0000000 )
                  (  0.0000000  1.0000000  0.0000000 )
                  ( -1.0000000  0.0000000  0.0000000 )


      isym = 34     inv. 180 deg rotation - cart. axis [-1,0,1]  

 cryst.   s(34) = (     0          0          1      )
                  (     0          1          0      )
                  (     1          0          0      )

 cart.    s(34) = (  0.0000000  0.0000000  1.0000000 )
                  (  0.0000000  1.0000000  0.0000000 )
                  (  1.0000000  0.0000000  0.0000000 )


      isym = 35     inv.  90 deg rotation - cart. axis [0,1,0]   

 cryst.   s(35) = (     0          0          1      )
                  (     0         -1          0      )
                  (    -1          0          0      )

 cart.    s(35) = (  0.0000000  0.0000000 -1.0000000 )
                  (  0.0000000 -1.0000000  0.0000000 )
                  (  1.0000000  0.0000000  0.0000000 )


      isym = 36     inv.  90 deg rotation - cart. axis [0,-1,0]  

 cryst.   s(36) = (     0          0         -1      )
                  (     0         -1          0      )
                  (     1          0          0      )

 cart.    s(36) = (  0.0000000  0.0000000  1.0000000 )
                  (  0.0000000 -1.0000000  0.0000000 )
                  ( -1.0000000  0.0000000  0.0000000 )


      isym = 37     inv. 180 deg rotation - cart. axis [0,1,1]   

 cryst.   s(37) = (     1          0          0      )
                  (     0          0         -1      )
                  (     0         -1          0      )

 cart.    s(37) = (  1.0000000  0.0000000  0.0000000 )
                  (  0.0000000  0.0000000 -1.0000000 )
                  (  0.0000000 -1.0000000  0.0000000 )


      isym = 38     inv. 180 deg rotation - cart. axis [0,1,-1]  

 cryst.   s(38) = (     1          0          0      )
                  (     0          0          1      )
                  (     0          1          0      )

 cart.    s(38) = (  1.0000000  0.0000000  0.0000000 )
                  (  0.0000000  0.0000000  1.0000000 )
                  (  0.0000000  1.0000000  0.0000000 )


      isym = 39     inv.  90 deg rotation - cart. axis [-1,0,0]  

 cryst.   s(39) = (    -1          0          0      )
                  (     0          0          1      )
                  (     0         -1          0      )

 cart.    s(39) = ( -1.0000000  0.0000000  0.0000000 )
                  (  0.0000000  0.0000000 -1.0000000 )
                  (  0.0000000  1.0000000  0.0000000 )


      isym = 40     inv.  90 deg rotation - cart. axis [1,0,0]   

 cryst.   s(40) = (    -1          0          0      )
                  (     0          0         -1      )
                  (     0          1          0      )

 cart.    s(40) = ( -1.0000000  0.0000000  0.0000000 )
                  (  0.0000000  0.0000000  1.0000000 )
                  (  0.0000000 -1.0000000  0.0000000 )


      isym = 41     inv. 120 deg rotation - cart. axis [-1,-1,-1]

 cryst.   s(41) = (     0          0         -1      )
                  (    -1          0          0      )
                  (     0         -1          0      )

 cart.    s(41) = (  0.0000000 -1.0000000  0.0000000 )
                  (  0.0000000  0.0000000 -1.0000000 )
                  ( -1.0000000  0.0000000  0.0000000 )


      isym = 42     inv. 120 deg rotation - cart. axis [-1,1,1]  

 cryst.   s(42) = (     0          0          1      )
                  (     1          0          0      )
                  (     0         -1          0      )

 cart.    s(42) = (  0.0000000  1.0000000  0.0000000 )
                  (  0.0000000  0.0000000 -1.0000000 )
                  (  1.0000000  0.0000000  0.0000000 )


      isym = 43     inv. 120 deg rotation - cart. axis [1,1,-1]  

 cryst.   s(43) = (     0          0          1      )
                  (    -1          0          0      )
                  (     0          1          0      )

 cart.    s(43) = (  0.0000000 -1.0000000  0.0000000 )
                  (  0.0000000  0.0000000  1.0000000 )
                  (  1.0000000  0.0000000  0.0000000 )


      isym = 44     inv. 120 deg rotation - cart. axis [1,-1,1]  

 cryst.   s(44) = (     0          0         -1      )
                  (     1          0          0      )
                  (     0          1          0      )

 cart.    s(44) = (  0.0000000  1.0000000  0.0000000 )
                  (  0.0000000  0.0000000  1.0000000 )
                  ( -1.0000000  0.0000000  0.0000000 )


      isym = 45     inv. 120 deg rotation - cart. axis [1,1,1]   

 cryst.   s(45) = (     0         -1          0      )
                  (     0          0         -1      )
                  (    -1          0          0      )

 cart.    s(45) = (  0.0000000  0.0000000 -1.0000000 )
                  ( -1.0000000  0.0000000  0.0000000 )
                  (  0.0000000 -1.0000000  0.0000000 )


      isym = 46     inv. 120 deg rotation - cart. axis [-1,1,-1] 

 cryst.   s(46) = (     0          1          0      )
                  (     0          0          1      )
                  (    -1          0          0      )

 cart.    s(46) = (  0.0000000  0.0000000 -1.0000000 )
                  (  1.0000000  0.0000000  0.0000000 )
                  (  0.0000000  1.0000000  0.0000000 )


      isym = 47     inv. 120 deg rotation - cart. axis [1,-1,-1] 

 cryst.   s(47) = (     0          1          0      )
                  (     0          0         -1      )
                  (     1          0          0      )

 cart.    s(47) = (  0.0000000  0.0000000  1.0000000 )
                  (  1.0000000  0.0000000  0.0000000 )
                  (  0.0000000 -1.0000000  0.0000000 )


      isym = 48     inv. 120 deg rotation - cart. axis [-1,-1,1] 

 cryst.   s(48) = (     0         -1          0      )
                  (     0          0          1      )
                  (     1          0          0      )

 cart.    s(48) = (  0.0000000  0.0000000  1.0000000 )
                  ( -1.0000000  0.0000000  0.0000000 )
                  (  0.0000000  1.0000000  0.0000000 )


   Cartesian axes

     site n.     atom                  positions (alat units)
         1           Pd  tau(   1) = (   0.5000000   0.5000000   0.5000000  )

   Crystallographic axes

     site n.     atom                  positions (cryst. coord.)
         1           Pd  tau(   1) = (  0.5000000  0.5000000  0.5000000  )

     number of k points=     1
                       cart. coord. in units 2pi/alat
        k(    1) = (   0.0000000   0.0000000   0.0000000), wk =   1.0000000

                       cryst. coord.
        k(    1) = (   0.0000000   0.0000000   0.0000000), wk =   1.0000000

     Dense  grid:  4721902 G-vectors     FFT dimensions: ( 270, 270, 270)

     Dynamical RAM for                 wfc:       3.38 MB

     Dynamical RAM for     wfc (w. buffer):      10.13 MB

     Dynamical RAM for           str. fact:       2.25 MB

     Dynamical RAM for           local pot:       0.00 MB

     Dynamical RAM for          nlocal pot:       1.69 MB

     Dynamical RAM for                qrad:       1.50 MB

     Dynamical RAM for          rho,v,vnew:      43.54 MB

     Dynamical RAM for               rhoin:      14.51 MB

     Dynamical RAM for            rho*nmix:      72.05 MB

     Dynamical RAM for           G-vectors:       9.57 MB

     Dynamical RAM for          h,s,v(r/c):       0.00 MB

     Dynamical RAM for          <psi|beta>:       0.00 MB

     Dynamical RAM for                 psi:      13.51 MB

     Dynamical RAM for                hpsi:      13.51 MB

     Dynamical RAM for      wfcinit/wfcrot:       6.76 MB

     Estimated static dynamical RAM per process >     189.79 MB

     Estimated max dynamical RAM per process >     216.81 MB

     Estimated total dynamical RAM >       6.78 GB
     Generating pointlists ...
     new r_m :   0.4125 (alat units)  9.3541 (a.u.) for type    1

     Initial potential from superposition of free atoms

     starting charge   16.00000, renormalised to   18.00000

     negative rho (up, down):  1.134E-04 0.000E+00
     Starting wfcs are    9 randomized atomic wfcs +    3 random wfcs

     total cpu time spent up to now is        5.9 secs

     Self-consistent Calculation

     iteration #  1     ecut=   330.00 Ry     beta= 0.70
     Davidson diagonalization with overlap
     ethr =  1.00E-02,  avg # of iterations = 10.0

     total cpu time spent up to now is       16.2 secs

     total energy              =    -216.24671720 Ry
     Harris-Foulkes estimate   =    -260.39308890 Ry
     estimated scf accuracy    <      54.13311504 Ry

     total magnetization       =    -0.00 Bohr mag/cell
     absolute magnetization    =     2.02 Bohr mag/cell

     iteration #  2     ecut=   330.00 Ry     beta= 0.70
     Davidson diagonalization with overlap
     ethr =  1.00E-02,  avg # of iterations =  8.0

     total cpu time spent up to now is       25.2 secs

     total energy              =    -258.15753432 Ry
     Harris-Foulkes estimate   =    -279.64711986 Ry
     estimated scf accuracy    <      36.74648312 Ry

     total magnetization       =     0.00 Bohr mag/cell
     absolute magnetization    =     1.50 Bohr mag/cell

     iteration #  3     ecut=   330.00 Ry     beta= 0.70
     Davidson diagonalization with overlap
     ethr =  1.00E-02,  avg # of iterations =  2.5

     total cpu time spent up to now is       31.3 secs

     total energy              =    -256.73353630 Ry
     Harris-Foulkes estimate   =    -260.09855888 Ry
     estimated scf accuracy    <       8.14932334 Ry

     total magnetization       =     0.00 Bohr mag/cell
     absolute magnetization    =     1.53 Bohr mag/cell

     iteration #  4     ecut=   330.00 Ry     beta= 0.70
     Davidson diagonalization with overlap
     ethr =  1.00E-02,  avg # of iterations =  2.0

     total cpu time spent up to now is       36.8 secs

     total energy              =    -254.12750185 Ry
     Harris-Foulkes estimate   =    -256.86523968 Ry
     estimated scf accuracy    <       3.53668800 Ry

     total magnetization       =    -0.00 Bohr mag/cell
     absolute magnetization    =     1.56 Bohr mag/cell

     iteration #  5     ecut=   330.00 Ry     beta= 0.70
     Davidson diagonalization with overlap
     ethr =  1.00E-02,  avg # of iterations =  2.0

     total cpu time spent up to now is       42.6 secs

     total energy              =    -254.62248304 Ry
     Harris-Foulkes estimate   =    -254.59349052 Ry
     estimated scf accuracy    <       0.03890858 Ry

     total magnetization       =     0.00 Bohr mag/cell
     absolute magnetization    =     1.67 Bohr mag/cell

     iteration #  6     ecut=   330.00 Ry     beta= 0.70
     Davidson diagonalization with overlap
     ethr =  2.16E-04,  avg # of iterations =  3.5

     negative rho (up, down):  2.126E-03 1.317E-01

     total cpu time spent up to now is       49.3 secs

     total energy              =    -254.48982109 Ry
     Harris-Foulkes estimate   =    -254.70863830 Ry
     estimated scf accuracy    <       0.30775931 Ry

     total magnetization       =    -0.00 Bohr mag/cell
     absolute magnetization    =     1.64 Bohr mag/cell

     iteration #  7     ecut=   330.00 Ry     beta= 0.70
     Davidson diagonalization with overlap
     ethr =  2.16E-04,  avg # of iterations =  4.0

     total cpu time spent up to now is       56.2 secs

     total energy              =    -254.60473092 Ry
     Harris-Foulkes estimate   =    -254.61185182 Ry
     estimated scf accuracy    <       0.06491746 Ry

     total magnetization       =     0.00 Bohr mag/cell
     absolute magnetization    =     1.71 Bohr mag/cell

     iteration #  8     ecut=   330.00 Ry     beta= 0.70
     Davidson diagonalization with overlap
     ethr =  2.16E-04,  avg # of iterations =  1.0

     total cpu time spent up to now is       61.2 secs

     total energy              =    -254.59712117 Ry
     Harris-Foulkes estimate   =    -254.60520175 Ry
     estimated scf accuracy    <       0.04396329 Ry

     total magnetization       =     0.00 Bohr mag/cell
     absolute magnetization    =     1.71 Bohr mag/cell

     iteration #  9     ecut=   330.00 Ry     beta= 0.70
     Davidson diagonalization with overlap
     ethr =  2.16E-04,  avg # of iterations =  1.0

     negative rho (up, down):  8.097E-04 3.506E-01

     total cpu time spent up to now is       66.3 secs

     total energy              =    -254.58739149 Ry
     Harris-Foulkes estimate   =    -254.59811311 Ry
     estimated scf accuracy    <       0.02012917 Ry

     total magnetization       =    -0.00 Bohr mag/cell
     absolute magnetization    =     1.70 Bohr mag/cell

     iteration # 10     ecut=   330.00 Ry     beta= 0.70
     Davidson diagonalization with overlap
     ethr =  1.12E-04,  avg # of iterations =  2.5

     negative rho (up, down):  5.027E-06 4.160E-01

     total cpu time spent up to now is       72.1 secs

     total energy              =    -254.59210568 Ry
     Harris-Foulkes estimate   =    -254.59203408 Ry
     estimated scf accuracy    <       0.00007370 Ry

     total magnetization       =     0.00 Bohr mag/cell
     absolute magnetization    =     1.68 Bohr mag/cell

     iteration # 11     ecut=   330.00 Ry     beta= 0.70
     Davidson diagonalization with overlap
     ethr =  4.09E-07,  avg # of iterations = 15.5

     negative rho (up, down):  2.917E-05 4.561E-01

     total cpu time spent up to now is       81.5 secs

     total energy              =    -254.70641303 Ry
     Harris-Foulkes estimate   =    -254.71094856 Ry
     estimated scf accuracy    <       0.26526469 Ry

     total magnetization       =    -0.00 Bohr mag/cell
     absolute magnetization    =     0.25 Bohr mag/cell

     iteration # 12     ecut=   330.00 Ry     beta= 0.70
     Davidson diagonalization with overlap
     ethr =  4.09E-07,  avg # of iterations =  2.0

     negative rho (up, down):  1.448E-05 4.544E-01

     total cpu time spent up to now is       87.1 secs

     total energy              =    -254.70548837 Ry
     Harris-Foulkes estimate   =    -254.70645948 Ry
     estimated scf accuracy    <       0.25208525 Ry

     total magnetization       =     0.00 Bohr mag/cell
     absolute magnetization    =     0.25 Bohr mag/cell

     iteration # 13     ecut=   330.00 Ry     beta= 0.70
     Davidson diagonalization with overlap
     ethr =  4.09E-07,  avg # of iterations =  1.0

     negative rho (up, down):  1.404E-05 4.559E-01

     total cpu time spent up to now is       92.2 secs

     total energy              =    -254.70550088 Ry
     Harris-Foulkes estimate   =    -254.70549058 Ry
     estimated scf accuracy    <       0.24941254 Ry

     total magnetization       =    -0.00 Bohr mag/cell
     absolute magnetization    =     0.25 Bohr mag/cell

     iteration # 14     ecut=   330.00 Ry     beta= 0.70
     Davidson diagonalization with overlap
     ethr =  4.09E-07,  avg # of iterations =  1.0

     negative rho (up, down):  3.807E-10 7.105E-03

     total cpu time spent up to now is       97.3 secs

     total energy              =    -254.70940913 Ry
     Harris-Foulkes estimate   =    -254.70550119 Ry
     estimated scf accuracy    <       0.24940529 Ry

     total magnetization       =    -0.00 Bohr mag/cell
     absolute magnetization    =     0.25 Bohr mag/cell

     iteration # 15     ecut=   330.00 Ry     beta= 0.70
     Davidson diagonalization with overlap
     ethr =  4.09E-07,  avg # of iterations =  2.5

     negative rho (up, down):  3.277E-05 4.909E-01

     total cpu time spent up to now is      103.0 secs

     total energy              =    -254.70372272 Ry
     Harris-Foulkes estimate   =    -254.70946917 Ry
     estimated scf accuracy    <       0.26057135 Ry

     total magnetization       =    -0.00 Bohr mag/cell
     absolute magnetization    =     0.25 Bohr mag/cell

     iteration # 16     ecut=   330.00 Ry     beta= 0.70
     Davidson diagonalization with overlap
     ethr =  4.09E-07,  avg # of iterations =  3.0

     negative rho (up, down):  2.577E-07 2.509E-01

     total cpu time spent up to now is      109.1 secs

     total energy              =    -254.70274664 Ry
     Harris-Foulkes estimate   =    -254.70383676 Ry
     estimated scf accuracy    <       0.24481098 Ry

     total magnetization       =    -0.00 Bohr mag/cell
     absolute magnetization    =     0.25 Bohr mag/cell

     iteration # 17     ecut=   330.00 Ry     beta= 0.70
     Davidson diagonalization with overlap
     ethr =  4.09E-07,  avg # of iterations =  1.5

     negative rho (up, down):  7.162E-05 4.321E-01

     total cpu time spent up to now is      114.3 secs

     total energy              =    -254.70645662 Ry
     Harris-Foulkes estimate   =    -254.70275437 Ry
     estimated scf accuracy    <       0.24271392 Ry

     total magnetization       =     0.00 Bohr mag/cell
     absolute magnetization    =     0.25 Bohr mag/cell

     iteration # 18     ecut=   330.00 Ry     beta= 0.70
     Davidson diagonalization with overlap
     ethr =  4.09E-07,  avg # of iterations =  2.5

     negative rho (up, down):  1.444E-04 4.165E-01

     total cpu time spent up to now is      120.2 secs

     total energy              =    -254.70407987 Ry
     Harris-Foulkes estimate   =    -254.70652175 Ry
     estimated scf accuracy    <       0.25107283 Ry

     total magnetization       =    -0.00 Bohr mag/cell
     absolute magnetization    =     0.25 Bohr mag/cell

     iteration # 19     ecut=   330.00 Ry     beta= 0.70
     Davidson diagonalization with overlap
     ethr =  4.09E-07,  avg # of iterations =  2.0

     negative rho (up, down):  1.154E-02 2.107E-01

     total cpu time spent up to now is      125.6 secs

     total energy              =    -254.61929113 Ry
     Harris-Foulkes estimate   =    -254.70409926 Ry
     estimated scf accuracy    <       0.24320350 Ry

     total magnetization       =     0.00 Bohr mag/cell
     absolute magnetization    =     0.25 Bohr mag/cell

     iteration # 20     ecut=   330.00 Ry     beta= 0.70
     Davidson diagonalization with overlap
     ethr =  4.09E-07,  avg # of iterations = 11.5

     negative rho (up, down):  6.382E-03 8.340E-02

     total cpu time spent up to now is      136.3 secs

     total energy              =    -254.66782157 Ry
     Harris-Foulkes estimate   =    -254.67561078 Ry
     estimated scf accuracy    <       0.01427984 Ry

     total magnetization       =     0.00 Bohr mag/cell
     absolute magnetization    =     0.30 Bohr mag/cell

     iteration # 21     ecut=   330.00 Ry     beta= 0.70
     Davidson diagonalization with overlap
     ethr =  4.09E-07,  avg # of iterations =  6.0

     negative rho (up, down):  2.030E-03 4.305E-02

     total cpu time spent up to now is      144.5 secs

     total energy              =    -254.67221325 Ry
     Harris-Foulkes estimate   =    -254.67433443 Ry
     estimated scf accuracy    <       0.00578942 Ry

     total magnetization       =    -0.00 Bohr mag/cell
     absolute magnetization    =     0.28 Bohr mag/cell

     iteration # 22     ecut=   330.00 Ry     beta= 0.70
     Davidson diagonalization with overlap
     ethr =  4.09E-07,  avg # of iterations =  3.5

     negative rho (up, down):  1.052E-04 6.917E-02

     total cpu time spent up to now is      151.6 secs

     total energy              =    -254.67325506 Ry
     Harris-Foulkes estimate   =    -254.67326111 Ry
     estimated scf accuracy    <       0.00002115 Ry

     total magnetization       =    -0.00 Bohr mag/cell
     absolute magnetization    =     0.27 Bohr mag/cell

     iteration # 23     ecut=   330.00 Ry     beta= 0.70
     Davidson diagonalization with overlap
     ethr =  1.17E-07,  avg # of iterations =  3.0

     negative rho (up, down):  7.602E-06 7.098E-02

     total cpu time spent up to now is      157.7 secs

     total energy              =    -254.67326539 Ry
     Harris-Foulkes estimate   =    -254.67326532 Ry
     estimated scf accuracy    <       0.00000673 Ry

     total magnetization       =    -0.00 Bohr mag/cell
     absolute magnetization    =     0.25 Bohr mag/cell

     iteration # 24     ecut=   330.00 Ry     beta= 0.70
     Davidson diagonalization with overlap
     ethr =  3.74E-08,  avg # of iterations =  2.0
 
     Magnetic moment per site:
     atom:    1    charge:   17.9998    magn:    0.0000    constr:    0.0000

     total cpu time spent up to now is      162.5 secs

     End of self-consistent calculation

 ------ SPIN UP ------------


          k = 0.0000 0.0000 0.0000 (590432 PWs)   bands (ev):

   -85.5099 -51.1189 -51.0760 -51.0749  -3.9041  -3.9036  -3.8750  -3.8713
    -3.8700  -3.1704  -0.0975  -0.0905

     occupation numbers 
     1.0000   1.0000   1.0000   1.0000   1.0000   1.0000   1.0000   1.0000
     1.0000   0.0000   0.0000   0.0000

 ------ SPIN DOWN ----------


          k = 0.0000 0.0000 0.0000 (590432 PWs)   bands (ev):

   -85.5097 -51.0944 -51.0894 -51.0851  -3.9255  -3.9007  -3.8989  -3.8496
    -3.8489  -3.1711  -0.0501  -0.0434

     occupation numbers 
     1.0000   1.0000   1.0000   1.0000   1.0000   1.0000   1.0000   1.0000
     1.0000   0.0000   0.0000   0.0000

     highest occupied, lowest unoccupied level (ev):    -3.8489   -3.1711

!    total energy              =    -254.67326785 Ry
     Harris-Foulkes estimate   =    -254.67326718 Ry
     estimated scf accuracy    <       0.00000035 Ry

     The total energy is the sum of the following terms:

     one-electron contribution =    -372.44207141 Ry
     hartree contribution      =     183.88007643 Ry
     xc contribution           =     -25.57257754 Ry
     ewald contribution        =     -40.53869533 Ry

     total magnetization       =     0.00 Bohr mag/cell
     absolute magnetization    =     0.25 Bohr mag/cell

     convergence has been achieved in  24 iterations

     Writing output data file pwscf.save/
 
     init_run     :      5.43s CPU      5.73s WALL (       1 calls)
     electrons    :    154.54s CPU    157.13s WALL (       1 calls)

     Called by init_run:
     wfcinit      :      0.97s CPU      1.05s WALL (       1 calls)
     wfcinit:atom :      0.01s CPU      0.02s WALL (       2 calls)
     wfcinit:wfcr :      0.94s CPU      1.01s WALL (       2 calls)
     potinit      :      1.52s CPU      1.60s WALL (       1 calls)
     hinit0       :      0.15s CPU      0.24s WALL (       1 calls)

     Called by electrons:
     c_bands      :     83.83s CPU     84.81s WALL (      24 calls)
     sum_band     :     22.52s CPU     22.58s WALL (      24 calls)
     v_of_rho     :     35.98s CPU     37.06s WALL (      25 calls)
     v_h          :      2.86s CPU      2.88s WALL (      25 calls)
     v_xc         :     33.12s CPU     34.18s WALL (      25 calls)
     mix_rho      :     12.25s CPU     12.41s WALL (      24 calls)

     Called by c_bands:
     init_us_2    :      0.39s CPU      0.41s WALL (      98 calls)
     regterg      :     83.22s CPU     84.18s WALL (      48 calls)

     Called by sum_band:

     Called by *egterg:
     h_psi        :     76.59s CPU     76.84s WALL (     237 calls)
     g_psi        :      0.26s CPU      0.26s WALL (     187 calls)
     rdiaghg      :      0.24s CPU      0.26s WALL (     235 calls)
     regterg:over :      1.79s CPU      1.80s WALL (     187 calls)
     regterg:upda :      3.18s CPU      3.22s WALL (     187 calls)
     regterg:last :      1.03s CPU      1.03s WALL (      61 calls)
     rdiaghg:chol :      0.04s CPU      0.04s WALL (     235 calls)
     rdiaghg:inve :      0.01s CPU      0.01s WALL (     235 calls)
     rdiaghg:para :      0.03s CPU      0.03s WALL (     470 calls)

     Called by h_psi:
     h_psi:pot    :     76.10s CPU     76.35s WALL (     237 calls)
     h_psi:calbec :      0.38s CPU      0.41s WALL (     237 calls)
     vloc_psi     :     75.35s CPU     75.57s WALL (     237 calls)
     add_vuspsi   :      0.36s CPU      0.36s WALL (     237 calls)

     General routines
     calbec       :      0.38s CPU      0.41s WALL (     237 calls)
     fft          :     32.23s CPU     32.58s WALL (     371 calls)
     ffts         :      3.15s CPU      3.16s WALL (      48 calls)
     fftw         :     73.18s CPU     73.39s WALL (    2286 calls)
 
     Parallel routines
     fft_scatt_xy :     26.92s CPU     26.96s WALL (    2705 calls)
     fft_scatt_yz :     32.77s CPU     33.12s WALL (    2705 calls)
 
     PWSCF        :   2m40.33s CPU   2m44.08s WALL

 
   This run was terminated on:  15:45:38  17Jan2022            

=------------------------------------------------------------------------------=
   JOB DONE.
=------------------------------------------------------------------------------=
