
 Primary working directories    : /global/cscratch1/sd/aannabe
 Secondary working directories  : /global/cscratch1/sd/aannabe
 Wavefunction directory         : /global/homes/a/aannabe/wfu/
 Main file repository           : /global/cscratch1/sd/aannabe/

 SHA1      : 19cd028119e0e09f93f0674bd8af7968d9b3eff6
 NAME      : 2015.1.36
 ARCHNAME  : linux/x86_64
 FC        : /opt/cray/pe/craype/2.5.14/bin/ftn
 BLASLIB   : -L/opt/intel/compilers_and_libraries_2018.1.163/linux/mkl/lib/intel64 -Wl,-_start-group -lmkl_intel_ilp64 -lmkl_intel_thread -lmkl_core -Wl,-_end-group -liomp5
 id        : lbl

 Nodes     nprocs
 nid00858    11
 Number of processes for MPI-2 version of Molpro:   nprocs(total)=   12   nprocs(compute)=   11   nprocs(helper)=    1

 Using customized tuning parameters: mindgm=7; mindgv=16; mindgc=1; mindgr=1; noblas=0; minvec=7
 default implementation of scratch files=sf  

 ***,Calculation for IrO groundstate
 
 memory,1024,m
 gthresh,twoint=1.0E-15
 gthresh,throvl=1.0E-15
 
 set,dkroll=1,dkho=10,dkhp=4
 
 geometry={
    1
    O
    O 0.0 0.0 0.0
 }
 
 basis={
                                                                                 !include,O.pp
 Including file /global/cscratch1/sd/aannabe/repos/heavy_element_ecps/Ir/arep/molecules/IrO/UC/O_atom/O-aug-cc-CVTZ.basis
 }
 
 {rhf
  wf,8,7,2;
  occ,2,1,1,0,1,0,0,0;
  closed,2,1,0,0,0,0,0,0;
 }
 
 B_scf=energy
 _CC_NORM_MAX=2.0
 {rccsd(t);maxit,100;core,1,0,0,0,0,0,0,0}
 B_ccsd=energy
 
 table,z,scf,ccsd,A_scf,A_ccsd,B_scf,B_ccsd
 save, 3.csv, new

 Variables initialized (889), CPU time= 0.01 sec
 Commands  initialized (702), CPU time= 0.01 sec, 572 directives.
 Default parameters read. Elapsed time= 0.13 sec

 Checking input...
 Passed
1


                                         ***  PROGRAM SYSTEM MOLPRO  ***
                                       Copyright, TTI GmbH Stuttgart, 2015
                                    Version 2015.1 linked Dec 29 2018 15:55:43


 **********************************************************************************************************************************
 LABEL *   Calculation for IrO groundstate                                               
  64 bit mpp version                                                                     DATE: 26-May-21          TIME: 12:23:54  
 **********************************************************************************************************************************

 SHA1:             19cd028119e0e09f93f0674bd8af7968d9b3eff6
 **********************************************************************************************************************************

 THRESHOLDS:

 ZERO    =  1.00D-12  ONEINT  =  1.00D-12  TWOINT  =  1.00D-15  PREFAC  =  1.00D-14  LOCALI  =  1.00D-09  EORDER  =  1.00D-04
 ENERGY  =  0.00D+00  ETEST   =  0.00D+00  EDENS   =  0.00D+00  THRDEDEF=  1.00D-06  GRADIENT=  1.00D-02  STEP    =  1.00D-03
 ORBITAL =  1.00D-05  CIVEC   =  1.00D-05  COEFF   =  1.00D-04  PRINTCI =  5.00D-02  PUNCHCI =  9.90D+01  OPTGRAD =  3.00D-04
 OPTENERG=  1.00D-06  OPTSTEP =  3.00D-04  THRGRAD =  1.00D-10  COMPRESS=  1.00D-11  VARMIN  =  1.00D-07  VARMAX  =  1.00D-03
 THRDOUB =  0.00D+00  THRDIV  =  1.00D-05  THRRED  =  1.00D-07  THRPSP  =  1.00D+00  THRDC   =  1.00D-10  THRCS   =  1.00D-10
 THRNRM  =  1.00D-08  THREQ   =  0.00D+00  THRDE   =  1.00D+00  THRREF  =  1.00D-05  SPARFAC =  1.00D+00  THRDLP  =  1.00D-07
 THRDIA  =  1.00D-10  THRDLS  =  1.00D-07  THRGPS  =  0.00D+00  THRKEX  =  0.00D+00  THRDIS  =  2.00D-01  THRVAR  =  1.00D-10
 THRLOC  =  1.00D-06  THRGAP  =  1.00D-06  THRLOCT = -1.00D+00  THRGAPT = -1.00D+00  THRORB  =  1.00D-06  THRMLTP =  0.00D+00
 THRCPQCI=  1.00D-10  KEXTA   =  0.00D+00  THRCOARS=  0.00D+00  SYMTOL  =  1.00D-06  GRADTOL =  1.00D-06  THROVL  =  1.00D-08
 THRORTH =  1.00D-08  GRID    =  1.00D-06  GRIDMAX =  1.00D-03  DTMAX   =  0.00D+00  THROCCDE=  1.00D-01  THROCCDE=  1.00D-01



 THRESHOLDS:

 ZERO    =  1.00D-12  ONEINT  =  1.00D-12  TWOINT  =  1.00D-15  PREFAC  =  1.00D-14  LOCALI  =  1.00D-09  EORDER  =  1.00D-04
 ENERGY  =  0.00D+00  ETEST   =  0.00D+00  EDENS   =  0.00D+00  THRDEDEF=  1.00D-06  GRADIENT=  1.00D-02  STEP    =  1.00D-03
 ORBITAL =  1.00D-05  CIVEC   =  1.00D-05  COEFF   =  1.00D-04  PRINTCI =  5.00D-02  PUNCHCI =  9.90D+01  OPTGRAD =  3.00D-04
 OPTENERG=  1.00D-06  OPTSTEP =  3.00D-04  THRGRAD =  1.00D-10  COMPRESS=  1.00D-11  VARMIN  =  1.00D-07  VARMAX  =  1.00D-03
 THRDOUB =  0.00D+00  THRDIV  =  1.00D-05  THRRED  =  1.00D-07  THRPSP  =  1.00D+00  THRDC   =  1.00D-10  THRCS   =  1.00D-10
 THRNRM  =  1.00D-08  THREQ   =  0.00D+00  THRDE   =  1.00D+00  THRREF  =  1.00D-05  SPARFAC =  1.00D+00  THRDLP  =  1.00D-07
 THRDIA  =  1.00D-10  THRDLS  =  1.00D-07  THRGPS  =  0.00D+00  THRKEX  =  0.00D+00  THRDIS  =  2.00D-01  THRVAR  =  1.00D-10
 THRLOC  =  1.00D-06  THRGAP  =  1.00D-06  THRLOCT = -1.00D+00  THRGAPT = -1.00D+00  THRORB  =  1.00D-06  THRMLTP =  0.00D+00
 THRCPQCI=  1.00D-10  KEXTA   =  0.00D+00  THRCOARS=  0.00D+00  SYMTOL  =  1.00D-06  GRADTOL =  1.00D-06  THROVL  =  1.00D-15
 THRORTH =  1.00D-08  GRID    =  1.00D-06  GRIDMAX =  1.00D-03  DTMAX   =  0.00D+00  THROCCDE=  1.00D-01  THROCCDE=  1.00D-01


 SETTING DKROLL         =         1.00000000                                  
 SETTING DKHO           =        10.00000000                                  
 SETTING DKHP           =         4.00000000                                  

Geometry recognized as XYZ


 Variable memory set to 1024000000 words,  buffer space   230000 words

 SETTING BASIS          =    USERDEF


 Recomputing integrals since basis changed


 Using spherical harmonics



 PROGRAM * SEWARD (Integral evaluation for generally contracted gaussian basis sets)     Author: Roland Lindh, 1990

 Geometry written to block  1 of record 700

 Orientation using atomic masses  
 Molecule type: Atom
 Symmetry elements: X,Y,Z
 Rotational constants:       0.0000000      0.0000000      0.0000000 GHz  (calculated with average atomic masses)

 Point group  D2h 



 ATOMIC COORDINATES

 NR  ATOM    CHARGE       X              Y              Z

   1  O       8.00    0.000000000    0.000000000    0.000000000

 NUCLEAR CHARGE:                    8
 NUMBER OF PRIMITIVE AOS:          81
 NUMBER OF SYMMETRY AOS:           71
 NUMBER OF CONTRACTIONS:           71   (  21Ag  +  12B3u +  12B2u +   4B1g +  12B1u +   4B2g +   4B3g +   2Au  )
 NUMBER OF CORE ORBITALS:           1   (   1Ag  +   0B3u +   0B2u +   0B1g +   0B1u +   0B2g +   0B3g +   0Au  )
 NUMBER OF VALENCE ORBITALS:        4   (   1Ag  +   1B3u +   1B2u +   0B1g +   1B1u +   0B2g +   0B3g +   0Au  )


 NUCLEAR REPULSION ENERGY    0.00000000

 One-electron integrals computed with SEWARD

 10nd-order Douglas-Kroll-Hess method activated. McWeeny DKH parametrization is used.

 Computing Douglas-Kroll / X2C integrals

 AO integral compression algorithm  1   Integral accuracy      1.0D-15

     7.602 MB (compressed) written to integral file ( 98.4%)

     Node minimum: 0.262 MB, node maximum: 1.311 MB


 NUMBER OF SORTED TWO-ELECTRON INTEGRALS:      41286.     BUFFER LENGTH:  32768
 NUMBER OF SEGMENTS:   1  SEGMENT LENGTH:      41286      RECORD LENGTH: 524288

 Memory used in sort:       0.60 MW

 SORT1 READ      904113. AND WROTE       32667. INTEGRALS IN      1 RECORDS. CPU TIME:     0.02 SEC, REAL TIME:     0.03 SEC
 SORT2 READ      364447. AND WROTE      465933. INTEGRALS IN     22 RECORDS. CPU TIME:     0.00 SEC, REAL TIME:     0.05 SEC

 Node minimum:       39357.  Node maximum:       49441. integrals

 OPERATOR DM      FOR CENTER  0  COORDINATES:    0.000000    0.000000    0.000000

 EXTRA SYMMETRY OF AOS IN SYMMETRY 1:   1 1 1 1 1 1 1 1 1 1   1 1 1 2 3 2 3 2 3 2   3
 EXTRA SYMMETRY OF AOS IN SYMMETRY 2:   1 1 1 1 1 1 1 1 2 3   2 3
 EXTRA SYMMETRY OF AOS IN SYMMETRY 3:   1 1 1 1 1 1 1 1 2 3   2 3
 EXTRA SYMMETRY OF AOS IN SYMMETRY 5:   1 1 1 1 1 1 1 1 2 3   2 3

 Eigenvalues of metric

         1 0.267E-04 0.466E-03 0.119E-01 0.237E-01 0.730E-01 0.132E+00 0.255E+00 0.261E+00
         2 0.763E-02 0.514E-01 0.125E+00 0.335E+00 0.447E+00 0.447E+00 0.706E+00 0.127E+01
         3 0.763E-02 0.514E-01 0.125E+00 0.335E+00 0.447E+00 0.447E+00 0.706E+00 0.127E+01
         4 0.261E+00 0.743E+00 0.111E+01 0.188E+01
         5 0.763E-02 0.514E-01 0.125E+00 0.335E+00 0.447E+00 0.447E+00 0.706E+00 0.127E+01
         6 0.261E+00 0.743E+00 0.111E+01 0.188E+01
         7 0.261E+00 0.743E+00 0.111E+01 0.188E+01
         8 0.447E+00 0.155E+01


 **********************************************************************************************************************************
 DATASETS  * FILE   NREC   LENGTH (MB)   RECORD NAMES
              1      22       19.94       500      610      700      900      950      970     1000      129      960     1700   
                                          VAR    BASINP    GEOM    SYMINP    ZMAT    AOBASIS   BASIS     P2S    ABASIS    OPER   
                                         1101     1401     1411     1412     1650     1100     1400     1410     1200     1210   
                                          SR      EKINR    POTR     PVPR    MOLCAS      S      EKIN      POT      H0       H01  
                                         1080     1600   
                                         AOSYM     SMH  

 PROGRAMS   *        TOTAL       INT
 CPU TIMES  *         0.89      0.62
 REAL TIME  *         1.90 SEC
 DISK USED  *        50.07 MB      
 GA USED    *         0.00 MB       (max)       0.00 MB       (current)
 **********************************************************************************************************************************


 PROGRAM * RHF-SCF (OPEN SHELL)       Authors: W. Meyer, H.-J. Werner


 NUMBER OF ELECTRONS:       5+    3-    SPACE SYMMETRY=7    SPIN SYMMETRY: Triplet 
 CONVERGENCE THRESHOLDS:    1.00E-05 (Density)    1.00E-07 (Energy)
 MAX. NUMBER OF ITERATIONS:       60
 INTERPOLATION TYPE:            DIIS
 INTERPOLATION STEPS:              2 (START)      1 (STEP)
 LEVEL SHIFTS:                 -0.60 (CLOSED) -0.30 (OPEN) 

 Number of closed-shell orbitals:    3 (   2   1   0   0   0   0   0   0 )
 Number of open-shell orbitals:      2 (   0   0   1   0   1   0   0   0 )


 Orbital guess generated from atomic densities. Full valence occupancy:    2   1   1   0   1   0   0   0


 Molecular orbital dump at record        2100.2

 ITERATION    DDIFF          GRAD             ENERGY        2-EL.EN.            DIPOLE MOMENTS         DIIS   ORB.
    1      0.000D+00      0.000D+00       -74.83615292     55.194582    0.00000    0.00000    0.00000    0    start
    2      0.000D+00      0.157D-01       -74.85797954     56.851198    0.00000    0.00000    0.00000    1    diag,B
    3      0.482D-02      0.426D-02       -74.85909294     56.854821    0.00000    0.00000    0.00000    2    diag,B
    4      0.106D-02      0.151D-02       -74.85944927     56.895314    0.00000    0.00000    0.00000    3    diag,B
    5      0.755D-03      0.453D-03       -74.85949179     56.903906    0.00000    0.00000    0.00000    4    diag,B
    6      0.361D-03      0.103D-03       -74.85949375     56.902948    0.00000    0.00000    0.00000    5    diag,B
    7      0.105D-03      0.216D-04       -74.85949384     56.902517    0.00000    0.00000    0.00000    6    fixocc
    8      0.179D-04      0.691D-05       -74.85949385     56.902364    0.00000    0.00000    0.00000    7    diag,B
    9      0.671D-05      0.207D-05       -74.85949385     56.902337    0.00000    0.00000    0.00000    0    orth

 Final alpha occupancy:   2   1   1   0   1   0   0   0
 Final beta  occupancy:   2   1   0   0   0   0   0   0

 !RHF STATE 1.7 Energy                -74.859493848608
 Nuclear energy                         0.00000000
 One-electron energy                 -103.31066243
 Two-electron energy                   28.45116858
 Virial quotient                       -0.99538617
 !RHF STATE 1.7 Dipole moment           0.00000000     0.00000000     0.00000000
 Dipole moment /Debye                   0.00000000     0.00000000     0.00000000

 Orbital energies:

         1.1          2.1          3.1          4.1
    -20.686735    -1.248262     0.150844     0.622214

         1.2          2.2          3.2
     -0.566632     0.162597     0.904108

         1.3          2.3          3.3
     -0.702526     0.153085     0.860936

         1.4          2.4
      0.638171     2.087267

         1.5          2.5          3.5
     -0.702526     0.153085     0.860936

         1.6          2.6
      0.638171     2.087267

         1.7          2.7
      0.622214     2.040806

         1.8          2.8
      2.017233     6.380082

 HOMO      1.2    -0.566632 =     -15.4189eV
 LUMO      3.1     0.150844 =       4.1047eV
 LUMO-HOMO         0.717476 =      19.5235eV


 **********************************************************************************************************************************
 DATASETS  * FILE   NREC   LENGTH (MB)   RECORD NAMES
              1      22       19.94       500      610      700      900      950      970     1000      129      960     1700   
                                          VAR    BASINP    GEOM    SYMINP    ZMAT    AOBASIS   BASIS     P2S    ABASIS    OPER   
                                         1101     1401     1411     1412     1650     1100     1400     1410     1200     1210   
                                          SR      EKINR    POTR     PVPR    MOLCAS      S      EKIN      POT      H0       H01  
                                         1080     1600   
                                         AOSYM     SMH  

              2       4        2.78       700     1000      520     2100   
                                         GEOM     BASIS   MCVARS     RHF  

 PROGRAMS   *        TOTAL       RHF       INT
 CPU TIMES  *         0.98      0.09      0.62
 REAL TIME  *         3.15 SEC
 DISK USED  *       301.87 MB      
 SF USED    *         0.00 MB      
 GA USED    *         0.00 MB       (max)       0.00 MB       (current)
 **********************************************************************************************************************************
 SETTING B_SCF          =       -74.85949385  AU                              
 SETTING _CC_NORM_MAX   =         2.00000000                                  


 PROGRAM * CCSD (Restricted open-shell coupled cluster)     Authors: C. Hampel, H.-J. Werner, 1991, M. Deegan, P.J. Knowles, 1992


 Convergence thresholds:  THRVAR = 1.00D-08  THRDEN = 1.00D-06

 CCSD(T)     terms to be evaluated (factor= 1.000)


 Number of core orbitals:           1 (   1   0   0   0   0   0   0   0 )
 Number of closed-shell orbitals:   2 (   1   1   0   0   0   0   0   0 )
 Number of active  orbitals:        2 (   0   0   1   0   1   0   0   0 )
 Number of external orbitals:      66 (  19  11  11   4  11   4   4   2 )

 Memory could be reduced to 0.77 Mwords without degradation in triples

 Number of N-1 electron functions:               6
 Number of N-2 electron functions:              15
 Number of singly external CSFs:                84
 Number of doubly external CSFs:              7236
 Total number of CSFs:                        7320

 Molecular orbitals read from record     2100.2  Type=RHF/CANONICAL (state 1.7)

 Integral transformation finished. Total CPU:   0.02 sec, npass=  1  Memory used:   0.13 MW

 Starting RMP2 calculation

 Wavefunction is spin-projected

 ITER.      SQ.NORM     CORR.ENERGY   TOTAL ENERGY   ENERGY CHANGE        DEN1      VAR(S)    VAR(P)  DIIS     TIME
   1      1.03138841    -0.15774242   -75.01723627    -0.15774242    -0.00024120  0.12D-05  0.66D-04  1  1     0.02
   2      1.03155032    -0.15799750   -75.01749135    -0.00025508    -0.00000028  0.50D-08  0.88D-07  2  2     0.02
   3      1.03155399    -0.15800103   -75.01749487    -0.00000352    -0.00000000  0.12D-10  0.18D-09  3  3     0.02
   4      1.03155401    -0.15800102   -75.01749487     0.00000001    -0.00000000  0.18D-12  0.94D-12  4  4     0.02

 Norm of t1 vector:      0.03478936      S-energy:    -0.00383001      T1 diagnostic:  0.00050372
 Norm of t2 vector:      0.17419445      P-energy:    -0.15417101
                                         Alpha-Beta:  -0.11638675
                                         Alpha-Alpha: -0.03309986
                                         Beta-Beta:   -0.00468439

 Spin contamination <S**2-Sz**2-Sz>     0.00000000
  Reference energy                    -74.859493848608
  RHF-RMP2 correlation energy          -0.158001017874
 !RHF-RMP2 energy                     -75.017494866482
 (NB above energy spin projected)

 Starting RCCSD calculation

 ITER.      SQ.NORM     CORR.ENERGY   TOTAL ENERGY   ENERGY CHANGE        DEN1      VAR(S)    VAR(P)  DIIS     TIME
   1      1.03767480    -0.16914569   -75.02863954    -0.16914569    -0.00327954  0.27D-03  0.65D-03  1  1     0.03
   2      1.04073633    -0.17265966   -75.03215351    -0.00351397    -0.00016186  0.44D-04  0.34D-04  2  2     0.03
   3      1.04180902    -0.17326562   -75.03275947    -0.00060596    -0.00001298  0.60D-05  0.25D-05  3  3     0.04
   4      1.04211995    -0.17336109   -75.03285494    -0.00009546    -0.00000150  0.80D-06  0.30D-06  4  4     0.04
   5      1.04224014    -0.17339122   -75.03288507    -0.00003013    -0.00000006  0.26D-07  0.13D-07  5  5     0.05
   6      1.04225225    -0.17339147   -75.03288532    -0.00000026    -0.00000000  0.94D-09  0.58D-09  6  6     0.05

 Norm of t1 vector:      0.05437342      S-energy:    -0.00476989      T1 diagnostic:  0.00621707
                                                                       D1 diagnostic:  0.01194104
 Norm of t2 vector:      0.19823163      P-energy:    -0.16862158
                                         Alpha-Beta:  -0.13100558
                                         Alpha-Alpha: -0.03292291
                                         Beta-Beta:   -0.00469310

 Spin contamination <S**2-Sz**2-Sz>     0.00000000

 Memory could be reduced to 0.80 Mwords without degradation in triples
 

 RESULTS
 =======

  Reference energy                    -74.859493848608
  RCCSD singles energy                 -0.004769894730
  RCCSD pair energy                    -0.168621578673
  RCCSD correlation energy             -0.173391473403
  Triples (T) contribution             -0.003767330842
  Total correlation energy             -0.177158804245
 
  RHF-RCCSD energy                    -75.032885322011
  RHF-RCCSD[T] energy                 -75.036682869205
  RHF-RCCSD-T energy                  -75.036617462147
 !RHF-RCCSD(T) energy                 -75.036652652853

 Program statistics:

 Available memory in ccsd:              1023999732
 Min. memory needed in ccsd:                 45617
 Max. memory used in ccsd:                   51709
 Max. memory used in cckext:                 75615 ( 6 integral passes)
 Max. memory used in cckint:                129868 ( 1 integral passes)



 **********************************************************************************************************************************
 DATASETS  * FILE   NREC   LENGTH (MB)   RECORD NAMES
              1      22       19.94       500      610      700      900      950      970     1000      129      960     1700   
                                          VAR    BASINP    GEOM    SYMINP    ZMAT    AOBASIS   BASIS     P2S    ABASIS    OPER   
                                         1101     1401     1411     1412     1650     1100     1400     1410     1200     1210   
                                          SR      EKINR    POTR     PVPR    MOLCAS      S      EKIN      POT      H0       H01  
                                         1080     1600   
                                         AOSYM     SMH  

              2       4        2.78       700     1000      520     2100   
                                         GEOM     BASIS   MCVARS     RHF  

 PROGRAMS   *        TOTAL  RCCSD(T)       RHF       INT
 CPU TIMES  *         1.08      0.10      0.09      0.62
 REAL TIME  *         3.44 SEC
 DISK USED  *       310.37 MB      
 SF USED    *         5.33 MB      
 GA USED    *         0.00 MB       (max)       0.00 MB       (current)
 **********************************************************************************************************************************
 SETTING B_CCSD         =       -75.03665265  AU                              
                                                                                                                                                                                                                                                                

 Z   SCF   CCSD   A_SCF   A_CCSD       B_SCF          B_CCSD
 Z   SCF   CCSD   A_SCF   A_CCSD   -74.85949385   -75.03665265
                                                  

 RCCSD(T)/USERDEF energy=    -75.036652652853

        RCCSD(T)        RHF-SCF 
    -75.03665265    -74.85949385
 **********************************************************************************************************************************
 Molpro calculation terminated
 Variable memory released
