
 Primary working directories    : /global/cscratch1/sd/aannabe
 Secondary working directories  : /global/cscratch1/sd/aannabe
 Wavefunction directory         : /global/homes/a/aannabe/wfu/
 Main file repository           : /global/cscratch1/sd/aannabe/

 SHA1      : 19cd028119e0e09f93f0674bd8af7968d9b3eff6
 NAME      : 2015.1.36
 ARCHNAME  : linux/x86_64
 FC        : /opt/cray/pe/craype/2.5.14/bin/ftn
 BLASLIB   : -L/opt/intel/compilers_and_libraries_2018.1.163/linux/mkl/lib/intel64 -Wl,-_start-group -lmkl_intel_ilp64 -lmkl_intel_thread -lmkl_core -Wl,-_end-group -liomp5
 id        : lbl

 Nodes     nprocs
 nid00758    23
 Number of processes for MPI-2 version of Molpro:   nprocs(total)=   24   nprocs(compute)=   23   nprocs(helper)=    1

 Using customized tuning parameters: mindgm=7; mindgv=16; mindgc=1; mindgr=1; noblas=0; minvec=7
 default implementation of scratch files=sf  

 ***,Calculation for Au atom, singlet and triplet
 memory,512,m
 geometry={
 1
 Au
 Au  0.0 0.0 0.0
 }
 
 basis={
 Including file /global/u1/a/aannabe/docs/various_ecps/Au/atom/AE/nr/basis/aug-cc-pwCVTZ.basis
 }
 
 Including file /global/u1/a/aannabe/docs/various_ecps/Au/atom/AE/nr/basis/states.proc
 
 do i=1,2
     if (i.eq.1) then
         VIId55f1
     else if (i.eq.2) then
         VIId55f1_d
     endif
     scf(i)=energy
                                                                                 !_CC_NORM_MAX=2.0
                                                                                 !{rccsd(t),maxit=100;core}
                                                                                 !ccsd(i)=energy
 enddo
 
 table,scf,ccsd
 save, f_tz.csv,new
 

 Variables initialized (889), CPU time= 0.01 sec
 Commands  initialized (702), CPU time= 0.01 sec, 572 directives.
 Default parameters read. Elapsed time= 0.21 sec

 Checking input...
 Passed
1


                                         ***  PROGRAM SYSTEM MOLPRO  ***
                                       Copyright, TTI GmbH Stuttgart, 2015
                                    Version 2015.1 linked Dec 29 2018 15:55:43


 **********************************************************************************************************************************
 LABEL *   Calculation for Au atom, singlet and triplet                                  
  64 bit mpp version                                                                     DATE: 16-Apr-20          TIME: 11:49:41  
 **********************************************************************************************************************************

 SHA1:             19cd028119e0e09f93f0674bd8af7968d9b3eff6
 **********************************************************************************************************************************

Geometry recognized as XYZ


 Variable memory set to  512000000 words,  buffer space   230000 words

 SETTING BASIS          =    USERDEF

 DO I                   =         1.00000000   

 Running procedure=VIID55F1


 Recomputing integrals since basis changed


 Using spherical harmonics



 PROGRAM * SEWARD (Integral evaluation for generally contracted gaussian basis sets)     Author: Roland Lindh, 1990

 Geometry written to block  1 of record 700

 Orientation using atomic masses  
 Molecule type: Atom
 Symmetry elements: X,Y,Z
 Rotational constants:       0.0000000      0.0000000      0.0000000 GHz  (calculated with average atomic masses)

 Point group  D2h 



 ATOMIC COORDINATES

 NR  ATOM    CHARGE       X              Y              Z

   1  AU     79.00    0.000000000    0.000000000    0.000000000

 NUCLEAR CHARGE:                   79
 NUMBER OF PRIMITIVE AOS:         459
 NUMBER OF SYMMETRY AOS:          374
 NUMBER OF CONTRACTIONS:          374   (  89Ag  +  62B3u +  62B2u +  28B1g +  62B1u +  28B2g +  28B3g +  15Au  )
 NUMBER OF CORE ORBITALS:          34   (   9Ag  +   6B3u +   6B2u +   2B1g +   6B1u +   2B2g +   2B3g +   1Au  )
 NUMBER OF VALENCE ORBITALS:        6   (   3Ag  +   0B3u +   0B2u +   1B1g +   0B1u +   1B2g +   1B3g +   0Au  )


 NUCLEAR REPULSION ENERGY    0.00000000

 EXTRA SYMMETRY OF AOS IN SYMMETRY 1:   1 1 1 1 1 1 1 1 1 1   1 1 1 1 1 1 1 1 1 1   1 1 1 1 1 1 1 1 1 1   1 1 1 1 1 1 2 3 2 3
                                        2 3 2 3 2 3 2 3 2 3   2 3 2 3 2 3 2 3 2 3   2 3 2 3 2 3 2 3 2 3   2 3 2 3 2 3 2 3 2 3
                                        4 5 6 4 5 6 4 5 6
 EXTRA SYMMETRY OF AOS IN SYMMETRY 2:   1 1 1 1 1 1 1 1 1 1   1 1 1 1 1 1 1 1 1 1   1 1 1 1 1 1 1 1 1 1   1 1 2 3 2 3 2 3 2 3
                                        2 3 2 3 2 3 2 3 2 3   2 3 2 3 2 3 2 3 2 3   2 3
 EXTRA SYMMETRY OF AOS IN SYMMETRY 3:   1 1 1 1 1 1 1 1 1 1   1 1 1 1 1 1 1 1 1 1   1 1 1 1 1 1 1 1 1 1   1 1 2 3 2 3 2 3 2 3
                                        2 3 2 3 2 3 2 3 2 3   2 3 2 3 2 3 2 3 2 3   2 3
 EXTRA SYMMETRY OF AOS IN SYMMETRY 4:   1 1 1 1 1 1 1 1 1 1   1 1 1 1 1 1 1 1 1 1   1 1 2 3 2 3 2 3
 EXTRA SYMMETRY OF AOS IN SYMMETRY 5:   1 1 1 1 1 1 1 1 1 1   1 1 1 1 1 1 1 1 1 1   1 1 1 1 1 1 1 1 1 1   1 1 2 3 2 3 2 3 2 3
                                        2 3 2 3 2 3 2 3 2 3   2 3 2 3 2 3 2 3 2 3   2 3
 EXTRA SYMMETRY OF AOS IN SYMMETRY 6:   1 1 1 1 1 1 1 1 1 1   1 1 1 1 1 1 1 1 1 1   1 1 2 3 2 3 2 3
 EXTRA SYMMETRY OF AOS IN SYMMETRY 7:   1 1 1 1 1 1 1 1 1 1   1 1 1 1 1 1 1 1 1 1   1 1 2 3 2 3 2 3

 Eigenvalues of metric

         1 0.109E-05 0.117E-04 0.117E-04 0.184E-04 0.545E-04 0.117E-03 0.117E-03 0.171E-03
         2 0.489E-06 0.213E-04 0.415E-04 0.415E-04 0.153E-03 0.504E-03 0.891E-03 0.891E-03
         3 0.489E-06 0.213E-04 0.415E-04 0.415E-04 0.153E-03 0.504E-03 0.891E-03 0.891E-03
         4 0.117E-04 0.117E-03 0.611E-03 0.197E-02 0.546E-02 0.126E-01 0.242E-01 0.443E-01
         5 0.489E-06 0.213E-04 0.415E-04 0.415E-04 0.153E-03 0.504E-03 0.891E-03 0.891E-03
         6 0.117E-04 0.117E-03 0.611E-03 0.197E-02 0.546E-02 0.126E-01 0.242E-01 0.443E-01
         7 0.117E-04 0.117E-03 0.611E-03 0.197E-02 0.546E-02 0.126E-01 0.242E-01 0.443E-01
         8 0.415E-04 0.891E-03 0.509E-02 0.124E-01 0.336E-01 0.825E-01 0.168E+00 0.319E+00


 Contracted 2-electron integrals neglected if value below      1.0D-13
 AO integral compression algorithm  1   Integral accuracy      1.0D-13

     1945.895 MB (compressed) written to integral file ( 38.0%)

     Node minimum: 27.001 MB, node maximum: 179.306 MB


 NUMBER OF SORTED TWO-ELECTRON INTEGRALS:   13788348.     BUFFER LENGTH:  32768
 NUMBER OF SEGMENTS:   1  SEGMENT LENGTH:   13788348      RECORD LENGTH: 524288

 Memory used in sort:      14.35 MW

 SORT1 READ   640440484. AND WROTE     8041294. INTEGRALS IN     24 RECORDS. CPU TIME:    26.14 SEC, REAL TIME:    38.32 SEC
 SORT2 READ   186392617. AND WROTE   317583807. INTEGRALS IN   4623 RECORDS. CPU TIME:     1.93 SEC, REAL TIME:     3.03 SEC

 Node minimum:    13641040.  Node maximum:    13963495. integrals

 OPERATOR DM      FOR CENTER  0  COORDINATES:    0.000000    0.000000    0.000000


 **********************************************************************************************************************************
 DATASETS  * FILE   NREC   LENGTH (MB)   RECORD NAMES
              1      18       20.83       500      610      700      900      950      970     1000      129      960     1100   
                                          VAR    BASINP    GEOM    SYMINP    ZMAT    AOBASIS   BASIS     P2S    ABASIS      S 
                                         1400     1410     1200     1210     1080     1600     1650     1700   
                                           T        V       H0       H01     AOSYM     SMH    MOLCAS    OPER   

 PROGRAMS   *        TOTAL       INT
 CPU TIMES  *       338.61    337.64
 REAL TIME  *       356.19 SEC
 DISK USED  *         4.25 GB      
 GA USED    *         0.00 MB       (max)       0.00 MB       (current)
 **********************************************************************************************************************************


 PROGRAM * RHF-SCF (OPEN SHELL)       Authors: W. Meyer, H.-J. Werner


 NUMBER OF ELECTRONS:      40+   34-    SPACE SYMMETRY=8    SPIN SYMMETRY: Septet  
 CONVERGENCE THRESHOLDS:    1.00E-05 (Density)    1.58E-07 (Energy)
 MAX. NUMBER OF ITERATIONS:       60
 INTERPOLATION TYPE:            DIIS
 INTERPOLATION STEPS:              2 (START)      1 (STEP)
 LEVEL SHIFTS:                 -0.60 (CLOSED) -0.30 (OPEN) 


 Singly occupied orbitals:     10.1      11.1       3.4       3.6       3.7       2.8
 
 Extra symmetries of mos in symmetry 1:   1   1   1   1   3   2   3   2   1   3   2
 Orbital guess generated from atomic densities. Full valence occupancy:   12   6   6   3   6   3   3   1


 Molecular orbital dump at record        4202.2

 ITERATION    DDIFF          GRAD             ENERGY        2-EL.EN.            DIPOLE MOMENTS         DIIS   ORB.
    1      0.000D+00      0.000D+00    -17834.41167704  12382.019140    0.00000    0.00000    0.00000    0    start
    2      0.000D+00      0.304D+00    -17853.80682219  13657.636684    0.00000    0.00000    0.00000    1    diag,B
    3      0.362D+00      0.147D+00    -17857.61714334  13205.553821    0.00000    0.00000    0.00000    2    diag,B
    4      0.217D-01      0.379D-01    -17857.83613625  13248.769810    0.00000    0.00000    0.00000    3    diag,B
    5      0.486D-02      0.312D-02    -17857.84350039  13253.839081    0.00000    0.00000    0.00000    4    diag,B
    6      0.165D-02      0.692D-03    -17857.84443639  13251.601567    0.00000    0.00000    0.00000    5    diag,B
    7      0.416D-03      0.192D-03    -17857.84463346  13251.586475    0.00000    0.00000    0.00000    6    fixocc
    8      0.304D-03      0.528D-04    -17857.84466306  13251.396708    0.00000    0.00000    0.00000    7    diag,B
    9      0.192D-03      0.797D-05    -17857.84466369  13251.383047    0.00000    0.00000    0.00000    8    diag,B
   10      0.386D-04      0.172D-05    -17857.84466370  13251.379864    0.00000    0.00000    0.00000    9    orth
   11      0.413D-05      0.142D-05    -17857.84466370  13251.379157    0.00000    0.00000    0.00000    0    orth

 Final alpha occupancy:  11   6   6   3   6   3   3   2
 Final beta  occupancy:   9   6   6   2   6   2   2   1

 !RHF STATE 1.8 Energy               -17857.8446636985    
 Nuclear energy                         0.00000000
 One-electron energy               -24483.53424209
 Two-electron energy                 6625.68957839
 Virial quotient                       -0.99999960
 !RHF STATE 1.8 Dipole moment           0.00000000     0.00000000     0.00000000
 Dipole moment /Debye                   0.00000000     0.00000000     0.00000000

 ELECTRON ORBITALS
 =================


   Orb  Occ    Energy  Couls-En    Coefficients

                                   1 1s      1 1s      1 1s      1 1s      1 1s      1 1s      1 1s      1 1s      1 1s      1 1s   
                                   1 1s      1 1s      1 1s      1 1s      1 1s      1 1s      1 1s      1 1s      1 1s      1 1s   
                                   1 1s      1 1s      1 1s      1 1s      1 1s      1 1s      1 1s      1 1s      1 1s      1 1s   
                                   1 1s      1 1s      1 1s      1 1s      1 1s      1 1s      1 3d0     1 3d2+    1 3d0     1 3d2+ 
                                   1 3d0     1 3d2+    1 3d0     1 3d2+    1 3d0     1 3d2+    1 3d0     1 3d2+    1 3d0     1 3d2+ 
                                   1 3d0     1 3d2+    1 3d0     1 3d2+    1 3d0     1 3d2+    1 3d0     1 3d2+    1 3d0     1 3d2+ 
                                   1 3d0     1 3d2+    1 3d0     1 3d2+    1 3d0     1 3d2+    1 3d0     1 3d2+    1 3d0     1 3d2+ 
                                   1 3d0     1 3d2+    1 3d0     1 3d2+    1 3d0     1 3d2+    1 3d0     1 3d2+    1 3d0     1 3d2+ 
                                   1 5g0     1 5g4+    1 5g2+    1 5g0     1 5g4+    1 5g2+    1 5g0     1 5g4+    1 5g2+ 

   1.1   2 -2709.7071-5830.0092  0.000000  0.000000  0.000000  0.000000  0.000002  0.000008  0.000029  0.000094  0.000285  0.000825
                                 0.002313  0.006282  0.016493  0.041240  0.095490  0.193102  0.307055  0.314712  0.149751  0.018406
                                 0.001291 -0.000781  0.000601 -0.000562  0.000522 -0.000795 -0.001077  0.000485  0.000094 -0.000009
                                 0.000005 -0.000002  0.000001 -0.000000  0.001374 -0.000334  0.000000 -0.000000 -0.000000  0.000000
                                 0.000000 -0.000000 -0.000000  0.000000  0.000000 -0.000000 -0.000000  0.000000  0.000000 -0.000000
                                -0.000000  0.000000  0.000000 -0.000000 -0.000000  0.000000  0.000000 -0.000000 -0.000000  0.000000
                                 0.000000 -0.000000  0.000000 -0.000000 -0.000000  0.000000 -0.000000  0.000000  0.000000 -0.000000
                                -0.000000  0.000000  0.000000 -0.000000 -0.000000  0.000000 -0.000000  0.000000  0.000000 -0.000000
                                -0.000000 -0.000000 -0.000000  0.000000  0.000000  0.000000  0.000000  0.000000 -0.000000

   2.1   2  -460.0597-1237.2764 -0.000000 -0.000000 -0.000000 -0.000000 -0.000001 -0.000003 -0.000010 -0.000031 -0.000095 -0.000275
                                -0.000773 -0.002108 -0.005595 -0.014292 -0.034675 -0.076968 -0.147045 -0.205894 -0.115240  0.257970
                                 0.565136  0.332433  0.046893  0.001786 -0.000777  0.000769  0.001177 -0.000513 -0.000099  0.000009
                                -0.000005  0.000002 -0.000001  0.000000 -0.001512  0.000360 -0.000000 -0.000000  0.000000  0.000000
                                -0.000000 -0.000000  0.000000  0.000000 -0.000000 -0.000000 -0.000000  0.000000  0.000000 -0.000000
                                -0.000000  0.000000  0.000000 -0.000000 -0.000000  0.000000 -0.000000 -0.000000  0.000000  0.000000
                                -0.000000 -0.000000 -0.000000 -0.000000  0.000000  0.000000  0.000000  0.000000 -0.000000 -0.000000
                                 0.000000  0.000000 -0.000000 -0.000000  0.000000  0.000000  0.000000  0.000000 -0.000000 -0.000000
                                 0.000000  0.000000  0.000000  0.000000  0.000000 -0.000000 -0.000000 -0.000000  0.000000

   3.1   2  -112.1148 -448.5849  0.000000  0.000000  0.000000  0.000000  0.000000  0.000001  0.000005  0.000015  0.000045  0.000130
                                 0.000367  0.001000  0.002662  0.006813  0.016674  0.037497  0.073974  0.109221  0.067788 -0.191323
                                -0.568736 -0.425024  0.522337  0.767300  0.178272  0.033228  0.037905 -0.018614 -0.003849  0.000366
                                -0.000200  0.000098 -0.000043  0.000012 -0.045303  0.013066  0.000000 -0.000000 -0.000000  0.000000
                                 0.000000 -0.000000 -0.000000  0.000000  0.000000 -0.000000 -0.000000  0.000000  0.000000  0.000000
                                -0.000000  0.000000 -0.000000 -0.000000 -0.000000  0.000000 -0.000000 -0.000001  0.000000  0.000002
                                -0.000001 -0.000006 -0.000001 -0.000006  0.000000  0.000002  0.000000  0.000001 -0.000000 -0.000000
                                 0.000000  0.000000 -0.000000 -0.000000  0.000000  0.000000  0.000002  0.000009 -0.000000 -0.000002
                                 0.000000  0.000000 -0.000000 -0.000000 -0.000000  0.000000  0.000000  0.000000 -0.000000

   4.1   2   -27.1950 -198.7876 -0.000000 -0.000000 -0.000000 -0.000000 -0.000000 -0.000001 -0.000002 -0.000007 -0.000022 -0.000065
                                -0.000182 -0.000496 -0.001324 -0.003386 -0.008317 -0.018728 -0.037323 -0.055632 -0.035943  0.106821
                                 0.338360  0.293646 -0.498223 -1.020939  0.081397  1.009571  0.345614 -0.036435 -0.010304  0.001162
                                -0.000630  0.000308 -0.000137  0.000039  0.054539  0.039606  0.000000 -0.000000 -0.000000  0.000000
                                 0.000000 -0.000000  0.000000  0.000000  0.000000 -0.000000  0.000000  0.000000  0.000000 -0.000000
                                 0.000000  0.000000  0.000000 -0.000000  0.000000  0.000000 -0.000000 -0.000000  0.000000  0.000001
                                -0.000000 -0.000002 -0.000000 -0.000002  0.000000  0.000001  0.000000  0.000000 -0.000000 -0.000000
                                 0.000000  0.000000 -0.000000 -0.000000  0.000000  0.000000  0.000001  0.000003 -0.000000 -0.000001
                                 0.000033  0.000028 -0.000000 -0.000021 -0.000018  0.000000  0.000005  0.000005 -0.000000

   5.1   2   -87.5760 -419.9459 -0.000000  0.000000 -0.000000  0.000000  0.000000  0.000000  0.000000  0.000000  0.000000  0.000000
                                 0.000000  0.000000  0.000000  0.000000  0.000000  0.000000  0.000000  0.000000 -0.000000  0.000000
                                -0.000000  0.000000 -0.000000  0.000000 -0.000000  0.000000  0.000000 -0.000000 -0.000000  0.000000
                                -0.000000  0.000000 -0.000000  0.000000 -0.000000  0.000000  0.000000  0.000002  0.000007  0.000027
                                 0.000067  0.000263  0.000433  0.001700  0.002076  0.008149  0.007536  0.029582  0.021433  0.084139
                                 0.047075  0.184801  0.076234  0.299269  0.082558  0.324096  0.047877  0.187949  0.012357  0.048510
                                 0.001212  0.004758  0.000171  0.000672 -0.000025 -0.000098 -0.000029 -0.000114  0.000003  0.000010
                                -0.000001 -0.000004  0.000000  0.000001 -0.000000 -0.000000 -0.000073 -0.000287  0.000044  0.000175
                                 0.000000 -0.000000 -0.000000 -0.000000  0.000000  0.000000  0.000000 -0.000000 -0.000000

   6.1   2   -87.5760 -419.9459  0.000000  0.000000  0.000000  0.000000  0.000000  0.000000  0.000000  0.000000  0.000000  0.000000
                                 0.000000  0.000000  0.000000  0.000000  0.000000  0.000000  0.000000  0.000000  0.000000 -0.000000
                                -0.000000 -0.000000  0.000000  0.000000  0.000000 -0.000000 -0.000000  0.000000  0.000000  0.000000
                                -0.000000  0.000000 -0.000000  0.000000  0.000000 -0.000000  0.000002 -0.000000  0.000027 -0.000007
                                 0.000263 -0.000067  0.001700 -0.000433  0.008149 -0.002076  0.029582 -0.007536  0.084139 -0.021433
                                 0.184801 -0.047075  0.299269 -0.076234  0.324096 -0.082558  0.187949 -0.047877  0.048510 -0.012357
                                 0.004758 -0.001212  0.000672 -0.000171 -0.000098  0.000025 -0.000114  0.000029  0.000010 -0.000003
                                -0.000004  0.000001  0.000001 -0.000000 -0.000000  0.000000 -0.000287  0.000073  0.000175 -0.000045
                                 0.000000 -0.000000  0.000000 -0.000000  0.000000 -0.000000  0.000000 -0.000000  0.000000

   7.1   2   -16.4881 -176.8597 -0.000000 -0.000000  0.000000 -0.000000  0.000000 -0.000000 -0.000000  0.000000 -0.000000  0.000000
                                -0.000000  0.000000 -0.000000  0.000000 -0.000000  0.000000 -0.000000  0.000000 -0.000000  0.000000
                                -0.000000  0.000000  0.000000  0.000000  0.000000 -0.000000 -0.000000  0.000000  0.000000 -0.000000
                                 0.000000 -0.000000  0.000000 -0.000000  0.000000 -0.000000 -0.000000 -0.000001 -0.000006 -0.000013
                                -0.000059 -0.000126 -0.000385 -0.000815 -0.001859 -0.003939 -0.006810 -0.014427 -0.019744 -0.041824
                                -0.044104 -0.093428 -0.070544 -0.149438 -0.063998 -0.135570  0.026744  0.056653  0.148238  0.314020
                                 0.185269  0.392465  0.102875  0.217925  0.022251  0.047135  0.001712  0.003627 -0.000018 -0.000038
                                 0.000004  0.000009 -0.000001 -0.000002  0.000000  0.000000  0.001687  0.003574 -0.001272 -0.002695
                                 0.000013 -0.000016 -0.000043 -0.000004  0.000005  0.000014  0.000002 -0.000002 -0.000005

   8.1   2   -16.4881 -176.8597 -0.000000  0.000000 -0.000000  0.000000 -0.000000  0.000000  0.000000  0.000000  0.000000  0.000000
                                 0.000000  0.000000  0.000000  0.000000  0.000000  0.000000  0.000000  0.000000 -0.000000  0.000000
                                -0.000000  0.000000 -0.000000  0.000000 -0.000000  0.000000  0.000000 -0.000000 -0.000000  0.000000
                                -0.000000 -0.000000  0.000000 -0.000000 -0.000000  0.000000  0.000001 -0.000000  0.000013 -0.000006
                                 0.000126 -0.000059  0.000815 -0.000385  0.003939 -0.001859  0.014427 -0.006810  0.041824 -0.019744
                                 0.093428 -0.044104  0.149437 -0.070544  0.135570 -0.063998 -0.056653  0.026744 -0.314019  0.148238
                                -0.392466  0.185267 -0.217927  0.102870 -0.047133  0.022255 -0.003625  0.001716  0.000038 -0.000018
                                -0.000009  0.000004  0.000002 -0.000001 -0.000000  0.000000 -0.003572  0.001692  0.002692 -0.001278
                                -0.000028  0.000033 -0.000020  0.000009 -0.000011  0.000007 -0.000003  0.000004 -0.000003

   9.1   2    -6.4845  -90.7717  0.000000  0.000000  0.000000  0.000000  0.000000  0.000000  0.000001  0.000003  0.000010  0.000028
                                 0.000079  0.000216  0.000576  0.001471  0.003623  0.008146  0.016307  0.024284  0.015998 -0.048063
                                -0.152844 -0.140791  0.258639  0.551159 -0.058478 -0.894621 -0.340773  0.737276  0.658632  0.035108
                                -0.012267  0.005307 -0.002252  0.000624 -0.234975  0.161997 -0.000000  0.000000  0.000000 -0.000000
                                -0.000000  0.000000 -0.000000 -0.000000 -0.000000  0.000000 -0.000000 -0.000000 -0.000000  0.000000
                                -0.000000 -0.000000 -0.000000  0.000000 -0.000000 -0.000000  0.000000  0.000000 -0.000000 -0.000000
                                 0.000000  0.000001  0.000000  0.000001 -0.000000 -0.000000 -0.000000 -0.000000  0.000000  0.000000
                                -0.000000 -0.000000  0.000000  0.000000 -0.000000 -0.000000 -0.000000 -0.000001  0.000000  0.000000
                                 0.000187  0.000158  0.000000  0.000237  0.000201  0.000000 -0.000169 -0.000143  0.000000

  10.1   +    -3.1755  -70.2057 -0.000000  0.000000 -0.000000 -0.000000 -0.000000 -0.000000 -0.000000 -0.000000 -0.000000 -0.000000
                                -0.000000 -0.000000 -0.000000 -0.000000 -0.000000 -0.000000 -0.000000 -0.000000  0.000000  0.000000
                                 0.000000  0.000000 -0.000000 -0.000000  0.000000 -0.000000 -0.000000  0.000000  0.000000  0.000000
                                -0.000000  0.000000 -0.000000  0.000000  0.000000 -0.000000 -0.000000 -0.000000 -0.000002 -0.000005
                                -0.000021 -0.000045 -0.000137 -0.000294 -0.000660 -0.001417 -0.002428 -0.005218 -0.007043 -0.015133
                                -0.015835 -0.034022 -0.025166 -0.054071 -0.022015 -0.047300  0.016613  0.035694  0.065576  0.140893
                                 0.084631  0.181835  0.019486  0.041867 -0.140951 -0.302840 -0.236569 -0.508280 -0.118354 -0.254290
                                -0.008991 -0.019318  0.000084  0.000179  0.000025  0.000053 -0.006253 -0.013436  0.018954  0.040725
                                -0.000048  0.000056  0.000159 -0.000179  0.000212  0.000597 -0.000119  0.000141  0.000396

  11.1   +    -3.1755  -70.2057  0.000000 -0.000000  0.000000 -0.000000  0.000000  0.000000 -0.000000  0.000000 -0.000000  0.000000
                                -0.000000  0.000000 -0.000000  0.000000 -0.000000  0.000000 -0.000000  0.000000 -0.000000  0.000000
                                -0.000000  0.000000 -0.000000  0.000000 -0.000000  0.000000  0.000000 -0.000000 -0.000000  0.000000
                                -0.000001  0.000001 -0.000002  0.000001 -0.000000  0.000000 -0.000000  0.000000 -0.000005  0.000002
                                -0.000045  0.000021 -0.000294  0.000137 -0.001417  0.000660 -0.005218  0.002428 -0.015133  0.007043
                                -0.034022  0.015835 -0.054071  0.025166 -0.047300  0.022015  0.035694 -0.016613  0.140893 -0.065576
                                 0.181835 -0.084631  0.041866 -0.019486 -0.302840  0.140951 -0.508280  0.236570 -0.254290  0.118354
                                -0.019318  0.008991  0.000180 -0.000084  0.000053 -0.000025 -0.013436  0.006254  0.040724 -0.018956
                                -0.000102  0.000121 -0.000074 -0.000386  0.000456 -0.000278 -0.000256  0.000302 -0.000184

  12.1   0    -1.7469  -41.1474 -0.000000 -0.000000 -0.000000 -0.000000 -0.000000 -0.000000 -0.000000 -0.000001 -0.000004 -0.000012
                                -0.000034 -0.000092 -0.000246 -0.000627 -0.001547 -0.003475 -0.006966 -0.010363 -0.006873  0.020681
                                 0.065630  0.061409 -0.114610 -0.244921  0.024389  0.452037  0.196843 -0.506020 -0.736573  1.166056
                                 0.344949 -0.049814  0.018412 -0.004839  0.123786 -0.212228  0.000000 -0.000000 -0.000000  0.000000
                                 0.000000 -0.000000 -0.000000  0.000000  0.000000 -0.000000 -0.000000  0.000000 -0.000000 -0.000000
                                -0.000000  0.000000 -0.000000 -0.000000 -0.000000  0.000000 -0.000000 -0.000000  0.000000  0.000000
                                -0.000000 -0.000000 -0.000000 -0.000000  0.000000  0.000000  0.000000  0.000000 -0.000000 -0.000000
                                 0.000000  0.000000  0.000000 -0.000000 -0.000000  0.000000  0.000000  0.000000 -0.000000 -0.000000
                                -0.000364 -0.000308 -0.000000 -0.000056 -0.000047  0.000000 -0.002305 -0.001948 -0.000000

                                   1 2px     1 2px     1 2px     1 2px     1 2px     1 2px     1 2px     1 2px     1 2px     1 2px  
                                   1 2px     1 2px     1 2px     1 2px     1 2px     1 2px     1 2px     1 2px     1 2px     1 2px  
                                   1 2px     1 2px     1 2px     1 2px     1 2px     1 2px     1 2px     1 2px     1 2px     1 2px  
                                   1 2px     1 2px     1 4f1+    1 4f3+    1 4f1+    1 4f3+    1 4f1+    1 4f3+    1 4f1+    1 4f3+ 
                                   1 4f1+    1 4f3+    1 4f1+    1 4f3+    1 4f1+    1 4f3+    1 4f1+    1 4f3+    1 4f1+    1 4f3+ 
                                   1 4f1+    1 4f3+    1 4f1+    1 4f3+    1 4f1+    1 4f3+    1 4f1+    1 4f3+    1 4f1+    1 4f3+ 
                                   1 4f1+    1 4f3+ 

   1.2   2  -441.7846-1218.4376  0.000000  0.000000  0.000000  0.000000  0.000002  0.000011  0.000061  0.000302  0.001295  0.004922
                                 0.016542  0.048687  0.121353  0.240071  0.339121  0.282232  0.107026  0.012099  0.000505 -0.000267
                                 0.000155  0.001005 -0.000124 -0.000095  0.000008 -0.000002  0.000001 -0.000000  0.000000 -0.000000
                                -0.001068  0.000146 -0.000000  0.000000 -0.000000  0.000000 -0.000000  0.000000 -0.000000  0.000000
                                 0.000000 -0.000000  0.000000 -0.000000  0.000000 -0.000000 -0.000000  0.000000 -0.000000  0.000000
                                 0.000000 -0.000000  0.000000 -0.000000 -0.000000  0.000000 -0.000000  0.000000  0.000000 -0.000000
                                 0.000000 -0.000000

   2.2   2  -103.4787 -438.0388 -0.000000 -0.000000 -0.000000 -0.000000 -0.000001 -0.000005 -0.000031 -0.000152 -0.000654 -0.002500
                                -0.008496 -0.025590 -0.066330 -0.139237 -0.209533 -0.140574  0.182358  0.513325  0.371991  0.083463
                                 0.009534  0.022144 -0.003204 -0.002608  0.000216 -0.000058  0.000025 -0.000012  0.000006 -0.000002
                                -0.022471  0.003863  0.000000 -0.000000 -0.000000  0.000000  0.000000 -0.000000  0.000000 -0.000000
                                -0.000001  0.000001  0.000000 -0.000000  0.000001 -0.000001 -0.000000  0.000000  0.000000 -0.000000
                                 0.000001 -0.000001  0.000000 -0.000000 -0.000001  0.000001 -0.000000  0.000001 -0.000000  0.000000
                                -0.000000  0.000000

   3.2   2   -23.4111 -191.2890  0.000000  0.000000  0.000000  0.000000  0.000000  0.000003  0.000015  0.000075  0.000323  0.001233
                                 0.004208  0.012728  0.033345  0.070941  0.108945  0.066603 -0.144655 -0.424708 -0.251216  0.354002
                                 0.611433  0.230114  0.024839 -0.002738  0.000541 -0.000134  0.000061 -0.000030  0.000014 -0.000004
                                 0.040293  0.004701  0.000000 -0.000000  0.000000 -0.000000  0.000000 -0.000000 -0.000000  0.000000
                                 0.000001 -0.000002 -0.000001  0.000001 -0.000003  0.000004 -0.000003  0.000003 -0.000023  0.000030
                                -0.000012  0.000016 -0.000001  0.000001  0.000007 -0.000009  0.000009 -0.000011  0.000002 -0.000003
                                 0.000000 -0.000000

   4.2   2    -7.1623 -153.8487  0.000000  0.000000  0.000000  0.000000  0.000000  0.000000  0.000000  0.000000  0.000000  0.000000
                                 0.000001  0.000003  0.000007  0.000016  0.000024  0.000015 -0.000035 -0.000104 -0.000054  0.000111
                                 0.000222 -0.000076 -0.000289 -0.000065  0.000088  0.000024 -0.000003  0.000001 -0.000000  0.000000
                                 0.000143 -0.000171  0.000091 -0.000117  0.001035 -0.001336  0.006328 -0.008170  0.024483 -0.031608
                                 0.067633 -0.087316  0.137203 -0.177132  0.191755 -0.247560  0.194878 -0.251591  0.133691 -0.172598
                                 0.052391 -0.067638  0.007569 -0.009772  0.000048 -0.000062 -0.002371  0.003061 -0.001287  0.001662
                                 0.000152 -0.000197

   5.2   2    -7.1611 -153.8533 -0.000000  0.000000 -0.000000  0.000000  0.000000  0.000000  0.000000  0.000000  0.000000  0.000000
                                 0.000000  0.000000  0.000000  0.000000  0.000000  0.000000 -0.000000 -0.000000 -0.000000  0.000000
                                -0.000000 -0.000000  0.000000  0.000000 -0.000000  0.000000 -0.000000  0.000000 -0.000000  0.000000
                                 0.000000 -0.000000  0.000117  0.000091  0.001336  0.001035  0.008170  0.006328  0.031610  0.024484
                                 0.087320  0.067636  0.177137  0.137207  0.247567  0.191761  0.251614  0.194896  0.172630  0.133716
                                 0.067643  0.052395  0.009745  0.007548  0.000020  0.000015 -0.003145 -0.002436 -0.001701 -0.001318
                                 0.000192  0.000149

   6.2   2    -5.1327  -84.1893 -0.000000 -0.000000 -0.000000 -0.000000 -0.000000 -0.000001 -0.000006 -0.000031 -0.000133 -0.000509
                                -0.001742 -0.005268 -0.013850 -0.029515 -0.045619 -0.027104  0.065563  0.197900  0.104170 -0.222953
                                -0.439096 -0.033018  0.505964  0.566443  0.129987 -0.004336  0.002408 -0.001184  0.000538 -0.000165
                                -0.090248  0.025644  0.000000 -0.000000  0.000000 -0.000001  0.000003 -0.000003  0.000011 -0.000014
                                 0.000028 -0.000036  0.000061 -0.000078  0.000082 -0.000105  0.000082 -0.000106  0.000022 -0.000029
                                -0.000244  0.000315 -0.000165  0.000212  0.000092 -0.000118  0.000071 -0.000091  0.000388 -0.000501
                                 0.000062 -0.000079

   7.2   0    -1.4422  -36.5514  0.000000  0.000000  0.000000  0.000000  0.000000  0.000000  0.000003  0.000012  0.000054  0.000203
                                 0.000698  0.002097  0.005555  0.011750  0.018379  0.010514 -0.025986 -0.081964 -0.038690  0.088384
                                 0.219907  0.384258 -0.454070 -0.872756  0.292487  0.865003  0.127075 -0.012462  0.003838 -0.001005
                                -0.306003  0.464398 -0.000000  0.000000 -0.000004  0.000005 -0.000024  0.000032 -0.000090  0.000116
                                -0.000262  0.000338 -0.000499  0.000644 -0.000731  0.000944 -0.000487  0.000629 -0.000903  0.001165
                                -0.003570  0.004609 -0.002450  0.003164  0.002592 -0.003347  0.005822 -0.007516  0.007820 -0.010096
                                 0.004861 -0.006276

                                   1 2py     1 2py     1 2py     1 2py     1 2py     1 2py     1 2py     1 2py     1 2py     1 2py  
                                   1 2py     1 2py     1 2py     1 2py     1 2py     1 2py     1 2py     1 2py     1 2py     1 2py  
                                   1 2py     1 2py     1 2py     1 2py     1 2py     1 2py     1 2py     1 2py     1 2py     1 2py  
                                   1 2py     1 2py     1 4f1-    1 4f3-    1 4f1-    1 4f3-    1 4f1-    1 4f3-    1 4f1-    1 4f3- 
                                   1 4f1-    1 4f3-    1 4f1-    1 4f3-    1 4f1-    1 4f3-    1 4f1-    1 4f3-    1 4f1-    1 4f3- 
                                   1 4f1-    1 4f3-    1 4f1-    1 4f3-    1 4f1-    1 4f3-    1 4f1-    1 4f3-    1 4f1-    1 4f3- 
                                   1 4f1-    1 4f3- 

   1.3   2  -441.7846-1218.4376  0.000000  0.000000  0.000000  0.000000  0.000002  0.000011  0.000061  0.000302  0.001295  0.004922
                                 0.016542  0.048687  0.121353  0.240071  0.339121  0.282232  0.107026  0.012099  0.000505 -0.000267
                                 0.000155  0.001005 -0.000124 -0.000095  0.000008 -0.000002  0.000001 -0.000000  0.000000 -0.000000
                                -0.001068  0.000146 -0.000000 -0.000000 -0.000000 -0.000000 -0.000000 -0.000000 -0.000000 -0.000000
                                 0.000000  0.000000  0.000000  0.000000  0.000000  0.000000 -0.000000 -0.000000 -0.000000 -0.000000
                                 0.000000  0.000000  0.000000  0.000000 -0.000000 -0.000000 -0.000000 -0.000000  0.000000  0.000000
                                 0.000000  0.000000

   2.3   2  -103.4787 -438.0388 -0.000000 -0.000000 -0.000000 -0.000000 -0.000001 -0.000005 -0.000031 -0.000152 -0.000654 -0.002500
                                -0.008496 -0.025590 -0.066330 -0.139237 -0.209533 -0.140574  0.182358  0.513325  0.371991  0.083463
                                 0.009534  0.022144 -0.003204 -0.002608  0.000216 -0.000058  0.000025 -0.000012  0.000006 -0.000002
                                -0.022471  0.003863  0.000000  0.000000 -0.000000 -0.000000  0.000000  0.000000  0.000000  0.000000
                                -0.000001 -0.000001  0.000000  0.000000  0.000001  0.000001 -0.000000 -0.000000  0.000000  0.000000
                                 0.000001  0.000001  0.000000  0.000000 -0.000001 -0.000001 -0.000000 -0.000001 -0.000000 -0.000000
                                -0.000000 -0.000000

   3.3   2   -23.4111 -191.2890  0.000000  0.000000  0.000000  0.000000  0.000000  0.000003  0.000015  0.000075  0.000323  0.001233
                                 0.004208  0.012728  0.033345  0.070941  0.108945  0.066603 -0.144655 -0.424708 -0.251216  0.354002
                                 0.611433  0.230114  0.024839 -0.002738  0.000541 -0.000134  0.000061 -0.000030  0.000014 -0.000004
                                 0.040293  0.004701  0.000000  0.000000  0.000000  0.000000  0.000000  0.000000 -0.000000 -0.000000
                                 0.000001  0.000002 -0.000001 -0.000001 -0.000003 -0.000004 -0.000003 -0.000003 -0.000023 -0.000030
                                -0.000012 -0.000016 -0.000001 -0.000001  0.000007  0.000009  0.000009  0.000011  0.000002  0.000003
                                 0.000000  0.000000

   4.3   2    -7.1623 -153.8487  0.000000  0.000000  0.000000  0.000000  0.000000  0.000000  0.000000  0.000000  0.000000  0.000000
                                 0.000001  0.000003  0.000007  0.000016  0.000024  0.000015 -0.000035 -0.000104 -0.000054  0.000111
                                 0.000222 -0.000076 -0.000289 -0.000065  0.000088  0.000024 -0.000003  0.000001 -0.000000  0.000000
                                 0.000143 -0.000171  0.000091  0.000117  0.001035  0.001336  0.006328  0.008169  0.024484  0.031608
                                 0.067636  0.087314  0.137207  0.177128  0.191761  0.247555  0.194884  0.251586  0.133695  0.172595
                                 0.052393  0.067636  0.007569  0.009772  0.000048  0.000062 -0.002371 -0.003061 -0.001287 -0.001662
                                 0.000152  0.000197

   5.3   2    -7.1611 -153.8533  0.000000 -0.000000  0.000000 -0.000000  0.000000  0.000000  0.000000  0.000000  0.000000  0.000000
                                 0.000000  0.000000  0.000000  0.000000  0.000000  0.000000 -0.000000  0.000000 -0.000000  0.000000
                                -0.000000 -0.000000  0.000000  0.000000  0.000000  0.000000 -0.000000  0.000000 -0.000000  0.000000
                                 0.000000 -0.000000 -0.000117  0.000091 -0.001336  0.001035 -0.008170  0.006328 -0.031609  0.024485
                                -0.087318  0.067638 -0.177134  0.137211 -0.247563  0.191767 -0.251610  0.194902 -0.172626  0.133720
                                -0.067642  0.052397 -0.009745  0.007549 -0.000020  0.000015  0.003145 -0.002436  0.001701 -0.001318
                                -0.000192  0.000149

   6.3   2    -5.1327  -84.1893 -0.000000 -0.000000 -0.000000 -0.000000 -0.000000 -0.000001 -0.000006 -0.000031 -0.000133 -0.000509
                                -0.001742 -0.005268 -0.013850 -0.029515 -0.045619 -0.027104  0.065563  0.197900  0.104170 -0.222953
                                -0.439096 -0.033018  0.505964  0.566443  0.129987 -0.004336  0.002408 -0.001184  0.000538 -0.000165
                                -0.090248  0.025644  0.000000  0.000000  0.000000  0.000001  0.000003  0.000003  0.000011  0.000014
                                 0.000028  0.000036  0.000061  0.000078  0.000082  0.000105  0.000082  0.000106  0.000022  0.000029
                                -0.000244 -0.000315 -0.000165 -0.000212  0.000092  0.000118  0.000071  0.000091  0.000388  0.000501
                                 0.000062  0.000079

   7.3   0    -1.4422  -36.5514  0.000000  0.000000  0.000000  0.000000  0.000000  0.000000  0.000003  0.000012  0.000054  0.000203
                                 0.000698  0.002097  0.005555  0.011750  0.018379  0.010514 -0.025986 -0.081964 -0.038690  0.088384
                                 0.219907  0.384259 -0.454070 -0.872756  0.292487  0.865003  0.127075 -0.012462  0.003838 -0.001005
                                -0.306003  0.464398 -0.000000 -0.000000 -0.000004 -0.000005 -0.000024 -0.000032 -0.000090 -0.000116
                                -0.000262 -0.000338 -0.000499 -0.000644 -0.000731 -0.000944 -0.000487 -0.000629 -0.000903 -0.001165
                                -0.003570 -0.004609 -0.002450 -0.003164  0.002592  0.003347  0.005822  0.007516  0.007820  0.010096
                                 0.004861  0.006276

                                   1 3d2-    1 3d2-    1 3d2-    1 3d2-    1 3d2-    1 3d2-    1 3d2-    1 3d2-    1 3d2-    1 3d2- 
                                   1 3d2-    1 3d2-    1 3d2-    1 3d2-    1 3d2-    1 3d2-    1 3d2-    1 3d2-    1 3d2-    1 3d2- 
                                   1 3d2-    1 3d2-    1 5g2-    1 5g4-    1 5g2-    1 5g4-    1 5g2-    1 5g4- 

   1.4   2   -87.5765 -419.9457  0.000002  0.000028  0.000271  0.001755  0.008409  0.030527  0.086825  0.190700  0.308823  0.334443
                                 0.193954  0.050067  0.004911  0.000691 -0.000100 -0.000115  0.000012 -0.000005  0.000001 -0.000000
                                -0.000295  0.000179 -0.000003  0.000000 -0.000003 -0.000000 -0.000002  0.000000

   2.4   2   -16.4872 -176.8655 -0.000001 -0.000014 -0.000139 -0.000901 -0.004356 -0.015955 -0.046254 -0.103324 -0.165268 -0.149928
                                 0.062656  0.347278  0.434037  0.240920  0.052029  0.004004 -0.000036  0.000013 -0.000002  0.000000
                                 0.003996 -0.002976 -0.000048 -0.000000  0.000033  0.000000  0.000007 -0.000000

   3.4   +    -3.2007  -69.9427 -0.000000 -0.000005 -0.000049 -0.000322 -0.001553 -0.005715 -0.016577 -0.037263 -0.059236 -0.051798
                                 0.039034  0.154386  0.198630  0.044876 -0.329411 -0.553462 -0.285870 -0.026601  0.000167  0.000036
                                -0.013463  0.041600 -0.001209  0.000000 -0.002436  0.000000 -0.008991  0.000000

   4.4   0    -1.0074  -28.4299 -0.000000 -0.000002 -0.000019 -0.000118 -0.000582 -0.002099 -0.006214 -0.013671 -0.022368 -0.018242
                                 0.013312  0.064034  0.050346 -0.053753 -0.078976 -0.118589 -0.137047  0.684794  0.484224 -0.018222
                                 0.059705 -0.142127  0.001828  0.000000 -0.002236 -0.000000  0.017393  0.000000

                                   1 2pz     1 2pz     1 2pz     1 2pz     1 2pz     1 2pz     1 2pz     1 2pz     1 2pz     1 2pz  
                                   1 2pz     1 2pz     1 2pz     1 2pz     1 2pz     1 2pz     1 2pz     1 2pz     1 2pz     1 2pz  
                                   1 2pz     1 2pz     1 2pz     1 2pz     1 2pz     1 2pz     1 2pz     1 2pz     1 2pz     1 2pz  
                                   1 2pz     1 2pz     1 4f0     1 4f2+    1 4f0     1 4f2+    1 4f0     1 4f2+    1 4f0     1 4f2+ 
                                   1 4f0     1 4f2+    1 4f0     1 4f2+    1 4f0     1 4f2+    1 4f0     1 4f2+    1 4f0     1 4f2+ 
                                   1 4f0     1 4f2+    1 4f0     1 4f2+    1 4f0     1 4f2+    1 4f0     1 4f2+    1 4f0     1 4f2+ 
                                   1 4f0     1 4f2+ 

   1.5   2  -441.7846-1218.4376  0.000000  0.000000  0.000000  0.000000  0.000002  0.000011  0.000061  0.000302  0.001295  0.004922
                                 0.016542  0.048687  0.121353  0.240071  0.339121  0.282232  0.107026  0.012099  0.000505 -0.000267
                                 0.000155  0.001005 -0.000124 -0.000095  0.000008 -0.000002  0.000001 -0.000000  0.000000 -0.000000
                                -0.001068  0.000146  0.000000  0.000000  0.000000  0.000000  0.000000 -0.000000  0.000000  0.000000
                                -0.000000 -0.000000 -0.000000  0.000000 -0.000000 -0.000000  0.000000  0.000000  0.000000 -0.000000
                                -0.000000 -0.000000 -0.000000 -0.000000  0.000000  0.000000  0.000000  0.000000 -0.000000  0.000000
                                -0.000000 -0.000000

   2.5   2  -103.4787 -438.0388 -0.000000 -0.000000 -0.000000 -0.000000 -0.000001 -0.000005 -0.000031 -0.000152 -0.000654 -0.002500
                                -0.008496 -0.025590 -0.066330 -0.139237 -0.209533 -0.140574  0.182358  0.513325  0.371991  0.083463
                                 0.009534  0.022144 -0.003204 -0.002608  0.000216 -0.000058  0.000025 -0.000012  0.000006 -0.000002
                                -0.022471  0.003863 -0.000000 -0.000000  0.000000  0.000000 -0.000000 -0.000000 -0.000000 -0.000000
                                 0.000001 -0.000000 -0.000001  0.000000 -0.000002 -0.000000  0.000000  0.000000 -0.000000 -0.000000
                                -0.000001 -0.000000 -0.000000 -0.000000  0.000001  0.000000  0.000001  0.000000  0.000000  0.000000
                                 0.000000 -0.000000

   3.5   2   -23.4111 -191.2890  0.000000  0.000000  0.000000  0.000000  0.000000  0.000003  0.000015  0.000075  0.000323  0.001233
                                 0.004208  0.012728  0.033345  0.070941  0.108945  0.066603 -0.144655 -0.424708 -0.251216  0.354002
                                 0.611433  0.230114  0.024839 -0.002738  0.000541 -0.000134  0.000061 -0.000030  0.000014 -0.000004
                                 0.040293  0.004701 -0.000000  0.000000 -0.000000  0.000000 -0.000000  0.000000  0.000000  0.000000
                                -0.000002  0.000000  0.000001  0.000000  0.000005  0.000000  0.000004  0.000000  0.000038 -0.000000
                                 0.000020 -0.000000  0.000002 -0.000000 -0.000012  0.000000 -0.000014  0.000000 -0.000003 -0.000000
                                -0.000000  0.000000

   4.5   2    -7.1623 -153.8487 -0.000000 -0.000000 -0.000000 -0.000000 -0.000000 -0.000000 -0.000000 -0.000000 -0.000000 -0.000000
                                -0.000001 -0.000003 -0.000007 -0.000016 -0.000024 -0.000015  0.000035  0.000104  0.000054 -0.000111
                                -0.000222  0.000076  0.000289  0.000065 -0.000088 -0.000024  0.000003 -0.000001  0.000000 -0.000000
                                -0.000143  0.000171  0.000148 -0.000000  0.001690 -0.000000  0.010334 -0.000000  0.039981 -0.000001
                                 0.110446 -0.000002  0.224054 -0.000004  0.313139 -0.000006  0.318238 -0.000006  0.218319 -0.000004
                                 0.085555 -0.000002  0.012360 -0.000000  0.000079  0.000000 -0.003872  0.000000 -0.002102  0.000000
                                 0.000249 -0.000000

   5.5   2    -7.1611 -153.8533 -0.000000 -0.000000  0.000000 -0.000000 -0.000000 -0.000000 -0.000000 -0.000000 -0.000000 -0.000000
                                -0.000000 -0.000000 -0.000000 -0.000000 -0.000000 -0.000000  0.000000  0.000000  0.000000 -0.000000
                                -0.000000  0.000000  0.000000 -0.000000 -0.000000 -0.000000  0.000000 -0.000000  0.000000 -0.000000
                                -0.000000  0.000000  0.000000  0.000148  0.000000  0.001691  0.000000  0.010334  0.000001  0.039983
                                 0.000002  0.110451  0.000004  0.224061  0.000006  0.313149  0.000006  0.318267  0.000004  0.218360
                                 0.000002  0.085562  0.000000  0.012326 -0.000000  0.000025 -0.000000 -0.003978 -0.000000 -0.002152
                                 0.000000  0.000243

   6.5   2    -5.1327  -84.1893 -0.000000 -0.000000 -0.000000 -0.000000 -0.000000 -0.000001 -0.000006 -0.000031 -0.000133 -0.000509
                                -0.001742 -0.005268 -0.013850 -0.029515 -0.045619 -0.027104  0.065563  0.197900  0.104170 -0.222953
                                -0.439096 -0.033018  0.505964  0.566443  0.129987 -0.004336  0.002408 -0.001184  0.000538 -0.000165
                                -0.090248  0.025644 -0.000000 -0.000000 -0.000001  0.000000 -0.000004  0.000000 -0.000017  0.000000
                                -0.000046  0.000000 -0.000099  0.000000 -0.000133  0.000000 -0.000134  0.000000 -0.000036 -0.000000
                                 0.000399 -0.000000  0.000269 -0.000000 -0.000150  0.000000 -0.000115  0.000000 -0.000633  0.000000
                                -0.000101 -0.000000

   7.5   0    -1.4422  -36.5514  0.000000  0.000000  0.000000  0.000000  0.000000  0.000000  0.000003  0.000012  0.000054  0.000203
                                 0.000698  0.002097  0.005555  0.011750  0.018379  0.010514 -0.025986 -0.081964 -0.038690  0.088384
                                 0.219907  0.384259 -0.454070 -0.872756  0.292487  0.865003  0.127075 -0.012462  0.003838 -0.001005
                                -0.306003  0.464398  0.000001 -0.000000  0.000006  0.000000  0.000040  0.000000  0.000147  0.000000
                                 0.000427  0.000000  0.000814  0.000000  0.001194  0.000000  0.000796 -0.000000  0.001474  0.000000
                                 0.005830 -0.000000  0.004002 -0.000000 -0.004234  0.000000 -0.009508  0.000000 -0.012770 -0.000000
                                -0.007938 -0.000000

                                   1 3d1+    1 3d1+    1 3d1+    1 3d1+    1 3d1+    1 3d1+    1 3d1+    1 3d1+    1 3d1+    1 3d1+ 
                                   1 3d1+    1 3d1+    1 3d1+    1 3d1+    1 3d1+    1 3d1+    1 3d1+    1 3d1+    1 3d1+    1 3d1+ 
                                   1 3d1+    1 3d1+    1 5g1+    1 5g3+    1 5g1+    1 5g3+    1 5g1+    1 5g3+ 

   1.6   2   -87.5765 -419.9457  0.000002  0.000028  0.000271  0.001755  0.008409  0.030527  0.086825  0.190700  0.308823  0.334443
                                 0.193954  0.050067  0.004911  0.000691 -0.000100 -0.000115  0.000012 -0.000005  0.000001 -0.000000
                                -0.000295  0.000179  0.000001  0.000002  0.000001  0.000003  0.000001  0.000002

   2.6   2   -16.4872 -176.8655 -0.000001 -0.000014 -0.000139 -0.000901 -0.004356 -0.015955 -0.046254 -0.103324 -0.165268 -0.149928
                                 0.062656  0.347278  0.434037  0.240920  0.052029  0.004004 -0.000036  0.000013 -0.000002  0.000000
                                 0.003996 -0.002976  0.000017  0.000045 -0.000012 -0.000031 -0.000002 -0.000006

   3.6   +    -3.2007  -69.9427 -0.000000 -0.000005 -0.000049 -0.000322 -0.001553 -0.005715 -0.016577 -0.037263 -0.059236 -0.051798
                                 0.039034  0.154386  0.198630  0.044876 -0.329411 -0.553462 -0.285870 -0.026601  0.000167  0.000036
                                -0.013463  0.041600  0.000428  0.001131  0.000861  0.002279  0.003179  0.008410

   4.6   0    -1.0074  -28.4299 -0.000000 -0.000002 -0.000019 -0.000118 -0.000582 -0.002099 -0.006214 -0.013671 -0.022368 -0.018242
                                 0.013312  0.064034  0.050346 -0.053753 -0.078976 -0.118589 -0.137047  0.684794  0.484224 -0.018222
                                 0.059705 -0.142127 -0.000646 -0.001710  0.000791  0.002092 -0.006149 -0.016269

                                   1 3d1-    1 3d1-    1 3d1-    1 3d1-    1 3d1-    1 3d1-    1 3d1-    1 3d1-    1 3d1-    1 3d1- 
                                   1 3d1-    1 3d1-    1 3d1-    1 3d1-    1 3d1-    1 3d1-    1 3d1-    1 3d1-    1 3d1-    1 3d1- 
                                   1 3d1-    1 3d1-    1 5g1-    1 5g3-    1 5g1-    1 5g3-    1 5g1-    1 5g3- 

   1.7   2   -87.5765 -419.9457  0.000002  0.000028  0.000271  0.001755  0.008409  0.030527  0.086825  0.190700  0.308823  0.334443
                                 0.193954  0.050067  0.004911  0.000691 -0.000100 -0.000115  0.000012 -0.000005  0.000001 -0.000000
                                -0.000295  0.000179  0.000001 -0.000002  0.000001 -0.000003  0.000001 -0.000002

   2.7   2   -16.4872 -176.8655 -0.000001 -0.000014 -0.000139 -0.000901 -0.004356 -0.015955 -0.046254 -0.103324 -0.165268 -0.149928
                                 0.062656  0.347278  0.434037  0.240920  0.052029  0.004004 -0.000036  0.000013 -0.000002  0.000000
                                 0.003996 -0.002976  0.000017 -0.000045 -0.000012  0.000031 -0.000002  0.000006

   3.7   +    -3.2007  -69.9427 -0.000000 -0.000005 -0.000049 -0.000322 -0.001553 -0.005715 -0.016577 -0.037263 -0.059236 -0.051798
                                 0.039034  0.154386  0.198630  0.044876 -0.329411 -0.553462 -0.285870 -0.026601  0.000167  0.000036
                                -0.013463  0.041600  0.000428 -0.001131  0.000861 -0.002279  0.003179 -0.008410

   4.7   0    -1.0074  -28.4299 -0.000000 -0.000002 -0.000019 -0.000118 -0.000582 -0.002099 -0.006214 -0.013671 -0.022368 -0.018242
                                 0.013312  0.064034  0.050346 -0.053753 -0.078976 -0.118589 -0.137047  0.684794  0.484224 -0.018222
                                 0.059705 -0.142127 -0.000646  0.001710  0.000791 -0.002092 -0.006149  0.016269

                                   1 4f2-    1 4f2-    1 4f2-    1 4f2-    1 4f2-    1 4f2-    1 4f2-    1 4f2-    1 4f2-    1 4f2- 
                                   1 4f2-    1 4f2-    1 4f2-    1 4f2-    1 4f2- 

   1.8   2    -7.1688 -154.0022  0.000149  0.001693  0.010353  0.040053  0.110650  0.224442  0.313614  0.318460  0.218123  0.085653
                                 0.012504 -0.000588 -0.005203 -0.003748 -0.001055

   2.8   +    -1.3196  -40.5552 -0.000030 -0.000324 -0.002061 -0.007732 -0.022089 -0.042850 -0.060454 -0.043799 -0.047786 -0.173386
                                -0.086328  0.153951  0.372316  0.548084  0.434181

   3.8   0    -0.3984  -29.8437  0.000039  0.000225  0.002274  0.005943  0.024266  0.030234  0.080837 -0.034172  0.496059  2.458785
                                 2.151183 -1.455466 -2.744277 -2.075230  1.359613

 HOMO      2.8    -1.319589 =     -35.9079eV
 LUMO     12.1    -1.746936 =     -47.5366eV
 LUMO-HOMO        -0.427347 =     -11.6287eV


 **********************************************************************************************************************************
 DATASETS  * FILE   NREC   LENGTH (MB)   RECORD NAMES
              1      18       20.88       500      610      700      900      950      970     1000      129      960     1100   
                                          VAR    BASINP    GEOM    SYMINP    ZMAT    AOBASIS   BASIS     P2S    ABASIS      S 
                                         1400     1410     1200     1210     1080     1600     1650     1700   
                                           T        V       H0       H01     AOSYM     SMH    MOLCAS    OPER   

              2       5        6.02       200      700     1000      520     4202   
                                        OPTIONS   GEOM     BASIS   MCVARS     RHF  

 PROGRAMS   *        TOTAL       RHF       INT
 CPU TIMES  *       342.04      3.42    337.64
 REAL TIME  *       360.03 SEC
 DISK USED  *         4.95 GB      
 SF USED    *         0.09 MB      
 GA USED    *         0.00 MB       (max)       0.00 MB       (current)
 **********************************************************************************************************************************


 PROGRAM * POP (Mulliken population analysis)

 
 Density matrix read from record         4202.2  Type=RHF/CHARGE (state 1.8)
 
 Population analysis by basis function type

 Unique atom        s        p        d        f        g    Total    Charge
   1  AU     10.00000 24.00000 24.99962 15.00000  0.00038 74.00000  + 5.00000


 **********************************************************************************************************************************
 DATASETS  * FILE   NREC   LENGTH (MB)   RECORD NAMES
              1      18       20.88       500      610      700      900      950      970     1000      129      960     1100   
                                          VAR    BASINP    GEOM    SYMINP    ZMAT    AOBASIS   BASIS     P2S    ABASIS      S 
                                         1400     1410     1200     1210     1080     1600     1650     1700   
                                           T        V       H0       H01     AOSYM     SMH    MOLCAS    OPER   

              2       5        6.02       200      700     1000      520     4202   
                                        OPTIONS   GEOM     BASIS   MCVARS     RHF  

 PROGRAMS   *        TOTAL       POP       RHF       INT
 CPU TIMES  *       342.04      0.00      3.42    337.64
 REAL TIME  *       360.07 SEC
 DISK USED  *         4.95 GB      
 SF USED    *         0.09 MB      
 GA USED    *         0.00 MB       (max)       0.00 MB       (current)
 **********************************************************************************************************************************


 PROGRAM * MULTI (Direct Multiconfiguration SCF)       Authors: P.J. Knowles, H.-J. Werner (1984)     S.T. Elbert (1988)


 Number of closed-shell orbitals:  34 (   9   6   6   2   6   2   2   1 )
 Number of active  orbitals:       12 (   2   2   2   1   2   1   1   1 )
 Number of external orbitals:     328 (  78  54  54  25  54  25  25  13 )

 State symmetry 1

 Orbital occupancy restrictions for symmetry 8
  1      1       200000000000                    
  1      1       020000000000                    
  1      1       000000200000                    
  1      1       000000000200                    
  1      1       000000000020                    

 Number of electrons:     6    Spin symmetry=Septet    Space symmetry=8
 Number of states:        1
 Number of CSFs:          1

 State symmetry 2

 Orbital occupancy restrictions for symmetry 2
  1      1       200000000000                    
  1      1       020000000000                    
  1      1       000000200000                    
  1      1       000000000200                    
  1      1       000000000020                    

 Number of electrons:     6    Spin symmetry=Septet    Space symmetry=2
 Number of states:        2
 Number of CSFs:          2

 State symmetry 3

 Orbital occupancy restrictions for symmetry 3
  1      1       200000000000                    
  1      1       020000000000                    
  1      1       000000200000                    
  1      1       000000000200                    
  1      1       000000000020                    

 Number of electrons:     6    Spin symmetry=Septet    Space symmetry=3
 Number of states:        2
 Number of CSFs:          2

 State symmetry 4

 Orbital occupancy restrictions for symmetry 5
  1      1       200000000000                    
  1      1       020000000000                    
  1      1       000000200000                    
  1      1       000000000200                    
  1      1       000000000020                    

 Number of electrons:     6    Spin symmetry=Septet    Space symmetry=5
 Number of states:        2
 Number of CSFs:          2
 
 Maximum number of shells:             1
 Maximum number of spin couplings:     1

 Storage for configuration lists     230, coupling coefficients      6, address lists   1187

 Molecular orbitals read from record     4202.2  Type=RHF/CANONICAL (state 1.8)
 *** IN SYMMETRY 1 ORBITAL  3 SYMMETRY CONTAMINATION OF 0.121D-04 HAS BEEN REMOVED
 *** IN SYMMETRY 1 ORBITAL  4 SYMMETRY CONTAMINATION OF 0.301D-04 HAS BEEN REMOVED
 *** IN SYMMETRY 1 ORBITAL  5 SYMMETRY CONTAMINATION OF 0.203D+00 HAS BEEN REMOVED
 *** IN SYMMETRY 1 ORBITAL  6 SYMMETRY CONTAMINATION OF 0.203D+00 HAS BEEN REMOVED
 *** IN SYMMETRY 1 ORBITAL  7 SYMMETRY CONTAMINATION OF 0.321D+00 HAS BEEN REMOVED
 *** IN SYMMETRY 1 ORBITAL  8 SYMMETRY CONTAMINATION OF 0.321D+00 HAS BEEN REMOVED
 *** IN SYMMETRY 1 ORBITAL  9 SYMMETRY CONTAMINATION OF 0.252D-03 HAS BEEN REMOVED
 *** IN SYMMETRY 1 ORBITAL 10 SYMMETRY CONTAMINATION OF 0.318D+00 HAS BEEN REMOVED
 *** IN SYMMETRY 1 ORBITAL 11 SYMMETRY CONTAMINATION OF 0.318D+00 HAS BEEN REMOVED

 EXTRA SYMMETRY OF MOS IN SYMMETRY 1:   1 1 1 1 3 2 3 2 1 3   2 1 3 2 1 3 2 1 1 3   2 1 4 5 6 3 2 1 4 6   5 3 2 1 4 5 6 3 2 1
                                        3 2 1 3 2 3 2 1 3 2   1 3 2 1 2 3 1 2 3 2   3 1 2 3 1 2 3 1 2 3   1 1 3 2 1 3 2 1 1 1
                                        1 1 1 1 1 1 1 1 1
 *** IN SYMMETRY 2 ORBITAL  3 SYMMETRY CONTAMINATION OF 0.605D-04 HAS BEEN REMOVED
 *** IN SYMMETRY 2 ORBITAL  4 SYMMETRY CONTAMINATION OF 0.437D+00 HAS BEEN REMOVED
 *** IN SYMMETRY 2 ORBITAL  5 SYMMETRY CONTAMINATION OF 0.436D+00 HAS BEEN REMOVED
 *** IN SYMMETRY 2 ORBITAL  6 SYMMETRY CONTAMINATION OF 0.119D-02 HAS BEEN REMOVED
 *** IN SYMMETRY 2 ORBITAL  7 SYMMETRY CONTAMINATION OF 0.158D-01 HAS BEEN REMOVED
 *** IN SYMMETRY 2 ORBITAL  8 SYMMETRY CONTAMINATION OF 0.467D+00 HAS BEEN REMOVED
 EXTRA SYMMETRY OF MOS IN SYMMETRY 2:   1 1 1 3 2 1 1 3 2 1   1 3 2 1 1 1 3 2 1 3   2 1 3 2 3 2 1 3 2 1   3 2 1 3 2 1 3 2 1 3
                                        2 1 3 2 1 3 2 1 3 2   1 1 1 1 1 1 1 1 1 1   1 1
 *** IN SYMMETRY 3 ORBITAL  3 SYMMETRY CONTAMINATION OF 0.605D-04 HAS BEEN REMOVED
 *** IN SYMMETRY 3 ORBITAL  4 SYMMETRY CONTAMINATION OF 0.437D+00 HAS BEEN REMOVED
 *** IN SYMMETRY 3 ORBITAL  5 SYMMETRY CONTAMINATION OF 0.436D+00 HAS BEEN REMOVED
 *** IN SYMMETRY 3 ORBITAL  6 SYMMETRY CONTAMINATION OF 0.119D-02 HAS BEEN REMOVED
 *** IN SYMMETRY 3 ORBITAL  7 SYMMETRY CONTAMINATION OF 0.158D-01 HAS BEEN REMOVED
 *** IN SYMMETRY 3 ORBITAL  8 SYMMETRY CONTAMINATION OF 0.467D+00 HAS BEEN REMOVED
 EXTRA SYMMETRY OF MOS IN SYMMETRY 3:   1 1 1 3 2 1 1 3 2 1   1 3 2 1 1 1 3 2 1 3   2 1 3 2 3 2 1 3 2 1   3 2 1 3 2 1 3 2 1 3
                                        2 1 3 2 1 3 2 1 3 2   1 1 1 1 1 1 1 1 1 1   1 1
 *** IN SYMMETRY 4 ORBITAL  2 SYMMETRY CONTAMINATION OF 0.540D-04 HAS BEEN REMOVED
 *** IN SYMMETRY 4 ORBITAL  3 SYMMETRY CONTAMINATION OF 0.675D-02 HAS BEEN REMOVED
 EXTRA SYMMETRY OF MOS IN SYMMETRY 4:   1 1 1 1 1 1 2 3 1 2   3 1 3 2 1 1 1 1 1 1   1 1 1 1 1 1 1 1
 *** IN SYMMETRY 5 ORBITAL  3 SYMMETRY CONTAMINATION OF 0.431D-04 HAS BEEN REMOVED
 *** IN SYMMETRY 5 ORBITAL  4 SYMMETRY CONTAMINATION OF 0.110D-02 HAS BEEN REMOVED
 *** IN SYMMETRY 5 ORBITAL  5 SYMMETRY CONTAMINATION OF 0.195D-04 HAS BEEN REMOVED
 *** IN SYMMETRY 5 ORBITAL  6 SYMMETRY CONTAMINATION OF 0.850D-03 HAS BEEN REMOVED
 *** IN SYMMETRY 5 ORBITAL  7 SYMMETRY CONTAMINATION OF 0.113D-01 HAS BEEN REMOVED
 *** IN SYMMETRY 5 ORBITAL  8 SYMMETRY CONTAMINATION OF 0.742D-01 HAS BEEN REMOVED
 EXTRA SYMMETRY OF MOS IN SYMMETRY 5:   1 1 1 2 3 1 1 2 3 1   1 2 3 1 1 1 2 3 1 2   3 1 2 3 2 3 1 2 3 1   2 3 1 2 3 1 2 3 1 2
                                        3 1 2 3 1 2 3 1 2 3   1 1 1 1 1 1 1 1 1 1   1 1
 *** IN SYMMETRY 6 ORBITAL  2 SYMMETRY CONTAMINATION OF 0.696D-04 HAS BEEN REMOVED
 *** IN SYMMETRY 6 ORBITAL  3 SYMMETRY CONTAMINATION OF 0.868D-02 HAS BEEN REMOVED
 EXTRA SYMMETRY OF MOS IN SYMMETRY 6:   1 1 1 1 1 1 3 2 1 3   2 1 2 3 1 1 1 1 1 1   1 1 1 1 1 1 1 1
 *** IN SYMMETRY 7 ORBITAL  2 SYMMETRY CONTAMINATION OF 0.696D-04 HAS BEEN REMOVED
 *** IN SYMMETRY 7 ORBITAL  3 SYMMETRY CONTAMINATION OF 0.868D-02 HAS BEEN REMOVED
 EXTRA SYMMETRY OF MOS IN SYMMETRY 7:   1 1 1 1 1 1 3 2 1 3   2 1 2 3 1 1 1 1 1 1   1 1 1 1 1 1 1 1

 Wavefunction dump at record             5202.2

 Convergence thresholds  0.10E-01 (gradient)  0.15E-05 (energy)  0.10E-02 (step length)

 Weight factors for state symmetry  1:    0.14286
 Weight factors for state symmetry  2:    0.14286   0.14286
 Weight factors for state symmetry  3:    0.14286   0.14286
 Weight factors for state symmetry  4:    0.14286   0.14286

 Eigenvalues of redundancy matrix
   1-  4   -0.000000    0.000000    0.000000    0.000000

 Number of orbital rotations:     2466   (    61 Core/Active   1837 Core/Virtual   0 Active/Active    568 Active/Virtual)
 Total number of variables:       2479


 ITER. MIC  NCI  NEG     ENERGY(VAR)     ENERGY(PROJ)   ENERGY CHANGE     GRAD(0)  GRAD(ORB)   GRAD(CI)     STEP       TIME

   1   16   28    0  -17858.04129451  -17858.04707621   -0.00578170    0.06235902 0.00000000 0.00000000  0.23D+00     16.21
   2   16   32    0  -17858.04707042  -17858.04707055   -0.00000013    0.00096356 0.00000000 0.00000000  0.23D-03     30.37
   3   17   20    0  -17858.04707054  -17858.04707054    0.00000000    0.00000003 0.00000000 0.00000000  0.15D-07     40.31

 ** WVFN ****  CONVERGENCE REACHED, FINAL GRADIENT:  0.32D-09



 Results for state 1.8
 =====================

 !MCSCF STATE 1.8 Energy             -17857.8431723145    
 Nuclear energy                         0.00000000
 Kinetic energy                     17857.98830675
 One electron energy               -24483.82859031
 Two electron energy                 6625.98541799
 Virial ratio                           1.99999187

 !MCSCF STATE 1.8 Dipole moment         0.00000000     0.00000000     0.00000000
 Dipole moment /Debye                   0.00000000     0.00000000     0.00000000



 Results for state 1.2
 =====================

 !MCSCF STATE 1.2 Energy             -17858.3189232475    
 Nuclear energy                         0.00000000
 Kinetic energy                     17858.13522318
 One electron energy               -24481.30965471
 Two electron energy                 6622.99073147
 Virial ratio                           2.00001029

 !MCSCF STATE 1.2 Dipole moment         0.00000000     0.00000000     0.00000000
 Dipole moment /Debye                   0.00000000     0.00000000     0.00000000

 Results for state 2.2
 =====================

 !MCSCF STATE 2.2 Energy             -17857.8432579865    
 Nuclear energy                         0.00000000
 Kinetic energy                     17857.98747835
 One electron energy               -24483.82798360
 Two electron energy                 6625.98472561
 Virial ratio                           1.99999192

 !MCSCF STATE 2.2 Dipole moment         0.00000000     0.00000000     0.00000000
 Dipole moment /Debye                   0.00000000     0.00000000     0.00000000



 Results for state 1.3
 =====================

 !MCSCF STATE 1.3 Energy             -17858.3189232475    
 Nuclear energy                         0.00000000
 Kinetic energy                     17858.13522318
 One electron energy               -24481.30965471
 Two electron energy                 6622.99073147
 Virial ratio                           2.00001029

 !MCSCF STATE 1.3 Dipole moment         0.00000000     0.00000000     0.00000000
 Dipole moment /Debye                   0.00000000     0.00000000     0.00000000

 Results for state 2.3
 =====================

 !MCSCF STATE 2.3 Energy             -17857.8432579865    
 Nuclear energy                         0.00000000
 Kinetic energy                     17857.98747835
 One electron energy               -24483.82798360
 Two electron energy                 6625.98472561
 Virial ratio                           1.99999192

 !MCSCF STATE 2.3 Dipole moment         0.00000000     0.00000000     0.00000000
 Dipole moment /Debye                   0.00000000     0.00000000     0.00000000



 Results for state 1.5
 =====================

 !MCSCF STATE 1.5 Energy             -17858.3188309486    
 Nuclear energy                         0.00000000
 Kinetic energy                     17858.13475279
 One electron energy               -24481.30795008
 Two electron energy                 6622.98911913
 Virial ratio                           2.00001031

 !MCSCF STATE 1.5 Dipole moment         0.00000000     0.00000000     0.00000000
 Dipole moment /Debye                   0.00000000     0.00000000     0.00000000

 Results for state 2.5
 =====================

 !MCSCF STATE 2.5 Energy             -17857.8431280790    
 Nuclear energy                         0.00000000
 Kinetic energy                     17857.98872029
 One electron energy               -24483.82880411
 Two electron energy                 6625.98567603
 Virial ratio                           1.99999185

 !MCSCF STATE 2.5 Dipole moment         0.00000000     0.00000000     0.00000000
 Dipole moment /Debye                   0.00000000     0.00000000     0.00000000

 State-averaged charge density matrix saved on record  5202.2 (density set 1)


 NATURAL ORBITALS (state averaged)
 =================================

 Some active orbitals have been swapped

   Orb     Occ        Energy       Coefficients

                                   1 1s      1 1s      1 1s      1 1s      1 1s      1 1s      1 1s      1 1s      1 1s      1 1s   
                                   1 1s      1 1s      1 1s      1 1s      1 1s      1 1s      1 1s      1 1s      1 1s      1 1s   
                                   1 1s      1 1s      1 1s      1 1s      1 1s      1 1s      1 1s      1 1s      1 1s      1 1s   
                                   1 1s      1 1s      1 1s      1 1s      1 1s      1 1s      1 3d0     1 3d2+    1 3d0     1 3d2+ 
                                   1 3d0     1 3d2+    1 3d0     1 3d2+    1 3d0     1 3d2+    1 3d0     1 3d2+    1 3d0     1 3d2+ 
                                   1 3d0     1 3d2+    1 3d0     1 3d2+    1 3d0     1 3d2+    1 3d0     1 3d2+    1 3d0     1 3d2+ 
                                   1 3d0     1 3d2+    1 3d0     1 3d2+    1 3d0     1 3d2+    1 3d0     1 3d2+    1 3d0     1 3d2+ 
                                   1 3d0     1 3d2+    1 3d0     1 3d2+    1 3d0     1 3d2+    1 3d0     1 3d2+    1 3d0     1 3d2+ 
                                   1 5g0     1 5g4+    1 5g2+    1 5g0     1 5g4+    1 5g2+    1 5g0     1 5g4+    1 5g2+ 

   1.1  2.00000 -2709.715312     0.000000  0.000000  0.000000  0.000000  0.000002  0.000008  0.000029  0.000094  0.000285  0.000825
                                 0.002313  0.006282  0.016493  0.041240  0.095490  0.193102  0.307055  0.314712  0.149751  0.018406
                                 0.001291 -0.000781  0.000601 -0.000562  0.000522 -0.000795 -0.001077  0.000485  0.000094 -0.000009
                                 0.000005 -0.000002  0.000001 -0.000000  0.001374 -0.000334  0.000000  0.000000  0.000000  0.000000
                                 0.000000  0.000000  0.000000  0.000000  0.000000  0.000000  0.000000  0.000000  0.000000  0.000000
                                 0.000000  0.000000  0.000000  0.000000  0.000000  0.000000  0.000000 -0.000000  0.000000 -0.000000
                                 0.000000 -0.000000  0.000000 -0.000000  0.000000 -0.000000  0.000000 -0.000000  0.000000  0.000000
                                 0.000000 -0.000000  0.000000  0.000000  0.000000 -0.000000  0.000000 -0.000000  0.000000  0.000000
                                 0.000000  0.000000  0.000000  0.000000  0.000000  0.000000  0.000000  0.000000  0.000000

   2.1  2.00000  -460.071322    -0.000000 -0.000000 -0.000000 -0.000000 -0.000001 -0.000003 -0.000010 -0.000031 -0.000095 -0.000275
                                -0.000773 -0.002108 -0.005595 -0.014292 -0.034675 -0.076967 -0.147045 -0.205893 -0.115240  0.257967
                                 0.565131  0.332437  0.046896  0.001785 -0.000777  0.000768  0.001176 -0.000513 -0.000099  0.000009
                                -0.000005  0.000002 -0.000001  0.000000 -0.001511  0.000360  0.000000  0.000000  0.000000  0.000000
                                 0.000000  0.000000  0.000000  0.000000  0.000000  0.000000  0.000000  0.000000  0.000000  0.000000
                                 0.000000  0.000000  0.000000  0.000000  0.000000  0.000000  0.000000 -0.000000  0.000000 -0.000000
                                 0.000000 -0.000000  0.000000 -0.000000  0.000000 -0.000000  0.000000 -0.000000  0.000000  0.000000
                                 0.000000 -0.000000  0.000000  0.000000  0.000000 -0.000000  0.000000 -0.000000  0.000000  0.000000
                                 0.000000  0.000000  0.000000  0.000000  0.000000  0.000000  0.000000  0.000000  0.000000

   3.1  2.00000  -112.129165     0.000000  0.000000  0.000000  0.000000  0.000000  0.000001  0.000005  0.000015  0.000045  0.000130
                                 0.000367  0.001000  0.002662  0.006813  0.016674  0.037496  0.073974  0.109220  0.067788 -0.191321
                                -0.568728 -0.425038  0.522339  0.767293  0.178285  0.033222  0.037880 -0.018602 -0.003843  0.000367
                                -0.000200  0.000098 -0.000043  0.000012 -0.045281  0.013052  0.000000 -0.000000  0.000000 -0.000000
                                 0.000000 -0.000000  0.000000 -0.000000  0.000000 -0.000000  0.000000 -0.000000  0.000000 -0.000000
                                 0.000000 -0.000000  0.000000 -0.000000  0.000000 -0.000000  0.000000 -0.000000  0.000000 -0.000000
                                 0.000000 -0.000000  0.000000 -0.000000  0.000000  0.000000  0.000000  0.000000  0.000000 -0.000000
                                 0.000000  0.000000  0.000000 -0.000000  0.000000  0.000000  0.000000  0.000000  0.000000 -0.000000
                                 0.000000  0.000000  0.000000  0.000000  0.000000  0.000000  0.000000  0.000000  0.000000

   4.1  2.00000   -87.590277     0.000000  0.000000  0.000000  0.000000  0.000000  0.000000  0.000000  0.000000  0.000000  0.000000
                                 0.000000  0.000000  0.000000  0.000000  0.000000  0.000000  0.000000  0.000000  0.000000  0.000000
                                 0.000000  0.000000  0.000000  0.000000  0.000000  0.000000  0.000000  0.000000  0.000000  0.000000
                                 0.000000  0.000000  0.000000  0.000000  0.000000  0.000000  0.000002  0.000000  0.000028  0.000000
                                 0.000271  0.000000  0.001755  0.000000  0.008409  0.000000  0.030526  0.000000  0.086824  0.000000
                                 0.190697  0.000000  0.308823  0.000000  0.334449  0.000000  0.193955  0.000000  0.050066  0.000000
                                 0.004906  0.000000  0.000689  0.000000 -0.000099  0.000000 -0.000116  0.000000  0.000011  0.000000
                                -0.000004  0.000000  0.000001  0.000000 -0.000000  0.000000 -0.000291  0.000000  0.000179  0.000000
                                 0.000000  0.000000  0.000000  0.000000  0.000000  0.000000  0.000000  0.000000  0.000000

   5.1  2.00000   -87.589687     0.000000  0.000000  0.000000  0.000000  0.000000  0.000000  0.000000  0.000000  0.000000  0.000000
                                 0.000000  0.000000  0.000000  0.000000  0.000000  0.000000  0.000000  0.000000  0.000000 -0.000000
                                -0.000000 -0.000000  0.000000  0.000000  0.000000  0.000000  0.000000 -0.000000 -0.000000 -0.000000
                                 0.000000 -0.000000  0.000000 -0.000000  0.000000 -0.000000  0.000000  0.000002  0.000000  0.000028
                                 0.000000  0.000271  0.000000  0.001755  0.000000  0.008409  0.000000  0.030526  0.000000  0.086825
                                 0.000000  0.190698  0.000000  0.308824  0.000000  0.334448  0.000000  0.193953  0.000000  0.050066
                                 0.000000  0.004906  0.000000  0.000688  0.000000 -0.000099  0.000000 -0.000116  0.000000  0.000011
                                 0.000000 -0.000004  0.000000  0.000001  0.000000 -0.000000  0.000000 -0.000290  0.000000  0.000178
                                 0.000000  0.000000  0.000000  0.000000  0.000000  0.000000  0.000000  0.000000  0.000000

   6.1  2.00000   -27.209374    -0.000000 -0.000000 -0.000000 -0.000000 -0.000000 -0.000001 -0.000002 -0.000007 -0.000022 -0.000065
                                -0.000182 -0.000496 -0.001324 -0.003386 -0.008318 -0.018729 -0.037324 -0.055633 -0.035944  0.106822
                                 0.338363  0.293665 -0.498232 -1.021036  0.081514  1.009844  0.346188 -0.036544 -0.010379  0.001144
                                -0.000629  0.000307 -0.000136  0.000038  0.053692  0.039772  0.000000  0.000000  0.000000  0.000000
                                 0.000000  0.000000  0.000000  0.000000  0.000000  0.000000  0.000000  0.000000  0.000000  0.000000
                                 0.000000  0.000000  0.000000  0.000000  0.000000  0.000000  0.000000  0.000000  0.000000  0.000000
                                 0.000000  0.000000  0.000000  0.000000  0.000000 -0.000000  0.000000 -0.000000  0.000000  0.000000
                                 0.000000 -0.000000  0.000000  0.000000  0.000000 -0.000000  0.000000 -0.000000  0.000000  0.000000
                                 0.000000  0.000000  0.000000  0.000000  0.000000  0.000000  0.000000  0.000000  0.000000

   7.1  2.00000   -16.502390     0.000000  0.000000  0.000000  0.000000  0.000000  0.000000  0.000000  0.000000  0.000000  0.000000
                                 0.000000  0.000000  0.000000  0.000000  0.000000  0.000000  0.000000  0.000000  0.000000  0.000000
                                 0.000000  0.000000  0.000000  0.000000  0.000000  0.000000  0.000000  0.000000  0.000000  0.000000
                                 0.000000  0.000000  0.000000  0.000000  0.000000  0.000000  0.000001  0.000000  0.000014  0.000000
                                 0.000139  0.000000  0.000901  0.000000  0.004355  0.000000  0.015954  0.000000  0.046251  0.000000
                                 0.103315  0.000000  0.165257  0.000000  0.149926  0.000000 -0.062649  0.000000 -0.347275  0.000000
                                -0.434028  0.000000 -0.241048  0.000000 -0.052170  0.000000 -0.003996  0.000000  0.000057  0.000000
                                -0.000007  0.000000  0.000002  0.000000 -0.000000  0.000000 -0.003819  0.000000  0.002983  0.000000
                                 0.000000  0.000000  0.000000  0.000000  0.000000  0.000000  0.000000  0.000000  0.000000

   8.1  2.00000   -16.500783     0.000000  0.000000  0.000000  0.000000  0.000000  0.000000  0.000000  0.000000  0.000000  0.000000
                                 0.000000  0.000000  0.000000  0.000000  0.000000  0.000000  0.000000  0.000000  0.000000 -0.000000
                                -0.000000 -0.000000  0.000000  0.000000 -0.000000 -0.000000 -0.000000  0.000000  0.000000  0.000000
                                -0.000000  0.000000 -0.000000  0.000000 -0.000000  0.000000  0.000000 -0.000001  0.000000 -0.000014
                                 0.000000 -0.000139  0.000000 -0.000901  0.000000 -0.004356  0.000000 -0.015954  0.000000 -0.046252
                                 0.000000 -0.103319  0.000000 -0.165263  0.000000 -0.149929  0.000000  0.062656  0.000000  0.347292
                                 0.000000  0.434044  0.000000  0.241022  0.000000  0.052138  0.000000  0.003992  0.000000 -0.000055
                                 0.000000  0.000008  0.000000 -0.000002  0.000000  0.000000  0.000000  0.003827  0.000000 -0.002982
                                 0.000000  0.000000  0.000000  0.000000  0.000000  0.000000  0.000000  0.000000  0.000000

   9.1  2.00000    -6.502083     0.000000  0.000000  0.000000  0.000000  0.000000  0.000000  0.000001  0.000003  0.000010  0.000028
                                 0.000079  0.000216  0.000577  0.001472  0.003624  0.008149  0.016314  0.024294  0.016004 -0.048079
                                -0.152907 -0.140840  0.258711  0.551446 -0.058615 -0.894923 -0.341409  0.734357  0.654212  0.034733
                                -0.012066  0.005224 -0.002218  0.000614 -0.234579  0.169741  0.000000  0.000000  0.000000  0.000000
                                 0.000000  0.000000  0.000000  0.000000  0.000000  0.000000  0.000000  0.000000  0.000000  0.000000
                                 0.000000  0.000000  0.000000  0.000000  0.000000  0.000000  0.000000  0.000000  0.000000  0.000000
                                 0.000000  0.000000  0.000000  0.000000  0.000000 -0.000000  0.000000 -0.000000  0.000000  0.000000
                                 0.000000 -0.000000  0.000000  0.000000  0.000000 -0.000000  0.000000 -0.000000  0.000000  0.000000
                                 0.000000  0.000000  0.000000  0.000000  0.000000  0.000000  0.000000  0.000000  0.000000

  10.1  1.00000    -2.751706     0.000000  0.000000  0.000000  0.000000  0.000000  0.000000  0.000000  0.000000  0.000000  0.000000
                                 0.000000  0.000000  0.000000  0.000000  0.000000  0.000000  0.000000  0.000000  0.000000  0.000000
                                 0.000000  0.000000  0.000000  0.000000  0.000000  0.000000  0.000000  0.000000  0.000000  0.000000
                                 0.000000  0.000000  0.000000  0.000000  0.000000  0.000000  0.000000 -0.000000  0.000000 -0.000005
                                 0.000000 -0.000050  0.000000 -0.000323  0.000000 -0.001559  0.000000 -0.005739  0.000000 -0.016647
                                 0.000000 -0.037423  0.000000 -0.059487  0.000000 -0.052024  0.000000  0.039225  0.000000  0.155066
[...]

   2.4  2.00000   -16.500667    -0.000001 -0.000014 -0.000139 -0.000901 -0.004356 -0.015955 -0.046253 -0.103320 -0.165265 -0.149931
                                 0.062657  0.347296  0.434049  0.241013  0.052126  0.003991 -0.000054  0.000008 -0.000002  0.000000
                                 0.003833 -0.002981  0.000000  0.000000  0.000000  0.000000  0.000000  0.000000

   3.4  1.00000    -2.752726    -0.000000 -0.000005 -0.000050 -0.000323 -0.001558 -0.005734 -0.016632 -0.037387 -0.059432 -0.051973
                                 0.039179  0.154927  0.199362  0.044985 -0.331118 -0.554059 -0.283527 -0.025259  0.000204  0.000033
                                -0.013620  0.040736  0.000000  0.000000  0.000000  0.000000  0.000000  0.000000

                                   1 2pz     1 2pz     1 2pz     1 2pz     1 2pz     1 2pz     1 2pz     1 2pz     1 2pz     1 2pz  
                                   1 2pz     1 2pz     1 2pz     1 2pz     1 2pz     1 2pz     1 2pz     1 2pz     1 2pz     1 2pz  
                                   1 2pz     1 2pz     1 2pz     1 2pz     1 2pz     1 2pz     1 2pz     1 2pz     1 2pz     1 2pz  
                                   1 2pz     1 2pz     1 4f0     1 4f2+    1 4f0     1 4f2+    1 4f0     1 4f2+    1 4f0     1 4f2+ 
                                   1 4f0     1 4f2+    1 4f0     1 4f2+    1 4f0     1 4f2+    1 4f0     1 4f2+    1 4f0     1 4f2+ 
                                   1 4f0     1 4f2+    1 4f0     1 4f2+    1 4f0     1 4f2+    1 4f0     1 4f2+    1 4f0     1 4f2+ 
                                   1 4f0     1 4f2+ 

   1.5  2.00000  -441.795872     0.000000  0.000000  0.000000  0.000000  0.000002  0.000011  0.000061  0.000302  0.001295  0.004922
                                 0.016542  0.048687  0.121352  0.240070  0.339120  0.282232  0.107029  0.012099  0.000505 -0.000267
                                 0.000155  0.001006 -0.000124 -0.000095  0.000008 -0.000002  0.000001 -0.000000  0.000000 -0.000000
                                -0.001069  0.000147  0.000000  0.000000  0.000000  0.000000  0.000000  0.000000  0.000000  0.000000
                                 0.000000  0.000000  0.000000  0.000000  0.000000  0.000000  0.000000  0.000000  0.000000  0.000000
                                 0.000000  0.000000  0.000000  0.000000  0.000000  0.000000  0.000000  0.000000  0.000000  0.000000
                                 0.000000  0.000000

   2.5  2.00000  -103.493589    -0.000000 -0.000000 -0.000000 -0.000000 -0.000001 -0.000005 -0.000031 -0.000152 -0.000654 -0.002500
                                -0.008496 -0.025590 -0.066330 -0.139237 -0.209532 -0.140576  0.182351  0.513330  0.371991  0.083466
                                 0.009527  0.022117 -0.003200 -0.002603  0.000215 -0.000059  0.000025 -0.000012  0.000006 -0.000002
                                -0.022443  0.003858  0.000000  0.000000  0.000000  0.000000  0.000000  0.000000  0.000000  0.000000
                                 0.000000  0.000000  0.000000  0.000000  0.000000  0.000000  0.000000  0.000000  0.000000  0.000000
                                 0.000000  0.000000  0.000000  0.000000  0.000000  0.000000  0.000000  0.000000  0.000000  0.000000
                                 0.000000  0.000000

   3.5  2.00000   -23.426839     0.000000  0.000000  0.000000  0.000000  0.000000  0.000003  0.000015  0.000075  0.000323  0.001233
                                 0.004208  0.012728  0.033346  0.070942  0.108946  0.066607 -0.144653 -0.424726 -0.251234  0.354085
                                 0.611441  0.230914  0.024859 -0.002766  0.000531 -0.000146  0.000061 -0.000031  0.000014 -0.000004
                                 0.039425  0.004738  0.000000  0.000000  0.000000  0.000000  0.000000  0.000000  0.000000  0.000000
                                 0.000000  0.000000  0.000000  0.000000  0.000000  0.000000  0.000000  0.000000  0.000000  0.000000
                                 0.000000  0.000000  0.000000  0.000000  0.000000  0.000000 -0.000000  0.000000 -0.000000  0.000000
                                 0.000000  0.000000

   4.5  2.00000    -7.177885    -0.000000 -0.000000 -0.000000 -0.000000 -0.000000 -0.000000 -0.000000 -0.000000 -0.000000 -0.000000
                                -0.000000 -0.000000 -0.000000 -0.000000 -0.000000 -0.000000  0.000000  0.000000  0.000000 -0.000000
                                -0.000000 -0.000000  0.000000  0.000000  0.000000 -0.000000  0.000000 -0.000000  0.000000 -0.000000
                                -0.000000  0.000000  0.000149  0.000000  0.001691  0.000000  0.010335  0.000000  0.039987  0.000000
                                 0.110465  0.000000  0.224091  0.000000  0.313187  0.000000  0.318215  0.000000  0.218248  0.000000
                                 0.085566  0.000000  0.012315  0.000000  0.000154  0.000000 -0.003990 -0.000000 -0.002236 -0.000000
                                 0.000162  0.000000

   5.5  2.00000    -7.175946     0.000000  0.000000  0.000000  0.000000  0.000000  0.000000  0.000000  0.000000  0.000000  0.000000
                                 0.000000  0.000000  0.000000  0.000000  0.000000  0.000000 -0.000000 -0.000000 -0.000000  0.000000
                                 0.000000  0.000000 -0.000000 -0.000000 -0.000000  0.000000 -0.000000  0.000000 -0.000000  0.000000
                                 0.000000 -0.000000 -0.000000  0.000148 -0.000000  0.001690 -0.000000  0.010334 -0.000000  0.039980
                                -0.000000  0.110446 -0.000000  0.224055 -0.000000  0.313145 -0.000000  0.318204 -0.000000  0.218282
                                -0.000000  0.085575 -0.000000  0.012309 -0.000000  0.000196  0.000000 -0.003910  0.000000 -0.002134
                                -0.000000  0.000244

   6.5  2.00000    -5.152710    -0.000000 -0.000000 -0.000000 -0.000000 -0.000000 -0.000001 -0.000006 -0.000031 -0.000134 -0.000510
                                -0.001743 -0.005271 -0.013858 -0.029533 -0.045646 -0.027121  0.065600  0.198021  0.104239 -0.223116
                                -0.439436 -0.035486  0.506039  0.564723  0.128637 -0.004225  0.002434 -0.001187  0.000539 -0.000165
                                -0.087995  0.028680 -0.000000  0.000000 -0.000000  0.000000 -0.000000  0.000000 -0.000000  0.000000
                                -0.000000  0.000000 -0.000000  0.000000 -0.000000  0.000000 -0.000000  0.000000 -0.000000  0.000000
                                -0.000000  0.000000 -0.000000  0.000000 -0.000000  0.000000  0.000000  0.000000  0.000000  0.000000
                                -0.000000  0.000000

   7.5  0.14286    -1.435938     0.000000  0.000000  0.000000  0.000000  0.000000  0.000000  0.000000  0.000000  0.000000  0.000000
                                 0.000000  0.000000  0.000000  0.000000  0.000000  0.000000  0.000000  0.000000  0.000000  0.000000
                                 0.000000  0.000000  0.000000  0.000000  0.000000  0.000000  0.000000  0.000000  0.000000  0.000000
                                 0.000000  0.000000 -0.000030  0.000000 -0.000328  0.000000 -0.002085  0.000000 -0.007830  0.000000
                                -0.022350  0.000000 -0.043408  0.000000 -0.061194  0.000000 -0.044738  0.000000 -0.047839  0.000000
                                -0.170712  0.000000 -0.084774  0.000000  0.151880  0.000000  0.368297  0.000000  0.545289  0.000000
                                 0.437979  0.000000

   8.5  0.14286    -0.902053     0.000000  0.000000  0.000000  0.000000  0.000000  0.000000  0.000003  0.000013  0.000058  0.000218
                                 0.000755  0.002257  0.006005  0.012641  0.019908  0.011154 -0.027636 -0.089368 -0.039773  0.090854
                                 0.255399  0.662484 -0.590027 -1.200908  0.458042  0.854140  0.041323  0.004904 -0.003281  0.001082
                                -0.559190  0.765369  0.000000  0.000000  0.000000  0.000000  0.000000  0.000000  0.000000  0.000000
                                 0.000000  0.000000  0.000000  0.000000  0.000000  0.000000  0.000000  0.000000  0.000000  0.000000
                                 0.000000  0.000000  0.000000  0.000000  0.000000  0.000000  0.000000  0.000000  0.000000  0.000000
                                 0.000000  0.000000

                                   1 3d1+    1 3d1+    1 3d1+    1 3d1+    1 3d1+    1 3d1+    1 3d1+    1 3d1+    1 3d1+    1 3d1+ 
                                   1 3d1+    1 3d1+    1 3d1+    1 3d1+    1 3d1+    1 3d1+    1 3d1+    1 3d1+    1 3d1+    1 3d1+ 
                                   1 3d1+    1 3d1+    1 5g1+    1 5g3+    1 5g1+    1 5g3+    1 5g1+    1 5g3+ 

   1.6  2.00000   -87.590090     0.000002  0.000028  0.000271  0.001755  0.008409  0.030526  0.086824  0.190698  0.308823  0.334449
                                 0.193954  0.050065  0.004906  0.000689 -0.000100 -0.000116  0.000011 -0.000004  0.000001 -0.000000
                                -0.000291  0.000179  0.000000  0.000000  0.000000  0.000000  0.000000  0.000000

   2.6  2.00000   -16.502046    -0.000001 -0.000014 -0.000139 -0.000901 -0.004355 -0.015954 -0.046251 -0.103315 -0.165257 -0.149926
                                 0.062650  0.347278  0.434029  0.241046  0.052168  0.003995 -0.000057  0.000007 -0.000002  0.000000
                                 0.003818 -0.002983  0.000000  0.000000  0.000000  0.000000  0.000000  0.000000

   3.6  1.00000    -2.753520    -0.000000 -0.000005 -0.000050 -0.000324 -0.001561 -0.005744 -0.016660 -0.037452 -0.059532 -0.052068
                                 0.039264  0.155168  0.199885  0.045468 -0.332322 -0.556390 -0.282176 -0.023620  0.000224  0.000037
                                -0.014085  0.041971  0.000000  0.000000  0.000000  0.000000  0.000000  0.000000

                                   1 3d1-    1 3d1-    1 3d1-    1 3d1-    1 3d1-    1 3d1-    1 3d1-    1 3d1-    1 3d1-    1 3d1- 
                                   1 3d1-    1 3d1-    1 3d1-    1 3d1-    1 3d1-    1 3d1-    1 3d1-    1 3d1-    1 3d1-    1 3d1- 
                                   1 3d1-    1 3d1-    1 5g1-    1 5g3-    1 5g1-    1 5g3-    1 5g1-    1 5g3- 

   1.7  2.00000   -87.590090     0.000002  0.000028  0.000271  0.001755  0.008409  0.030526  0.086824  0.190698  0.308823  0.334449
                                 0.193954  0.050065  0.004906  0.000689 -0.000100 -0.000116  0.000011 -0.000004  0.000001 -0.000000
                                -0.000291  0.000179  0.000000  0.000000  0.000000  0.000000  0.000000  0.000000

   2.7  2.00000   -16.502046    -0.000001 -0.000014 -0.000139 -0.000901 -0.004355 -0.015954 -0.046251 -0.103315 -0.165257 -0.149926
                                 0.062650  0.347278  0.434029  0.241046  0.052168  0.003995 -0.000057  0.000007 -0.000002  0.000000
                                 0.003818 -0.002983  0.000000  0.000000  0.000000  0.000000  0.000000  0.000000

   3.7  1.00000    -2.753520    -0.000000 -0.000005 -0.000050 -0.000324 -0.001561 -0.005744 -0.016660 -0.037452 -0.059532 -0.052068
                                 0.039264  0.155168  0.199885  0.045468 -0.332322 -0.556390 -0.282176 -0.023620  0.000224  0.000037
                                -0.014085  0.041971  0.000000  0.000000  0.000000  0.000000  0.000000  0.000000

                                   1 4f2-    1 4f2-    1 4f2-    1 4f2-    1 4f2-    1 4f2-    1 4f2-    1 4f2-    1 4f2-    1 4f2- 
                                   1 4f2-    1 4f2-    1 4f2-    1 4f2-    1 4f2- 

   1.8  2.00000    -7.177046     0.000149  0.001691  0.010336  0.039989  0.110470  0.224100  0.313198  0.318222  0.218238  0.085545
                                 0.012309  0.000143 -0.004001 -0.002235  0.000161

   2.8  0.14286    -0.899973    -0.000030 -0.000328 -0.002085 -0.007829 -0.022347 -0.043402 -0.061186 -0.044728 -0.047840 -0.170747
                                -0.084803  0.151901  0.368337  0.545324  0.437952

 Total charge:   5.000000000000
 

 EXTRA SYMMETRY OF MOS IN SYMMETRY 1:   1 1 1 2 3 1 2 3 1 3   2 1 2 3 1 2 3 1 1 2   3 1 4 5 6 2 3 1 4 6   5 2 3 1 4 6 5 2 3 1
                                        2 3 1 2 3 2 3 1 2 3   1 2 3 1 2 3 1 2 3 2   3 1 2 3 1 2 3 1 2 3   1 1 2 3 1 2 3 1 1 1
                                        1 1 1 1 1 1 1 1 1
 EXTRA SYMMETRY OF MOS IN SYMMETRY 2:   1 1 1 2 3 1 3 1 1 2   1 1 3 2 1 1 2 3 1 2   3 1 2 3 2 3 1 2 3 1   2 3 1 2 3 1 2 3 1 2
                                        3 1 2 3 1 2 3 1 2 3   1 1 1 1 1 1 1 1 1 1   1 1
 EXTRA SYMMETRY OF MOS IN SYMMETRY 3:   1 1 1 2 3 1 3 1 2 1   1 1 3 2 1 1 2 3 1 2   3 1 2 3 2 3 1 2 3 1   2 3 1 2 3 1 2 3 1 2
                                        3 1 2 3 1 2 3 1 2 3   1 1 1 1 1 1 1 1 1 1   1 1
 EXTRA SYMMETRY OF MOS IN SYMMETRY 4:   1 1 1 1 1 1 2 3 1 2   3 1 2 3 1 1 1 1 1 1   1 1 1 1 1 1 1 1
 EXTRA SYMMETRY OF MOS IN SYMMETRY 5:   1 1 1 2 3 1 2 1 3 1   1 1 2 1 3 1 2 3 1 2   3 1 2 3 2 3 1 2 3 1   2 3 1 2 3 1 2 3 1 2
                                        3 1 2 3 1 2 3 1 2 3   1 1 1 1 1 1 1 1 1 1   1 1
 EXTRA SYMMETRY OF MOS IN SYMMETRY 6:   1 1 1 1 1 1 2 3 1 2   3 1 2 3 1 1 1 1 1 1   1 1 1 1 1 1 1 1
 EXTRA SYMMETRY OF MOS IN SYMMETRY 7:   1 1 1 1 1 1 2 3 1 2   3 1 2 3 1 1 1 1 1 1   1 1 1 1 1 1 1 1

 Natural orbital dump (state averaged) at molpro section  5202.2    (Orbital set 2)


 CI vector for state symmetry 1
 ==============================

 // 00 00 / 00 / / /      1.0000000

 CI vector for state symmetry 2
 ==============================

 // 0/ 00 / 00 / / 0     -0.0001203   1.0000000
 // /0 00 / 00 / / 0      1.0000000   0.0001203

 CI vector for state symmetry 3
 ==============================

 // 00 0/ / 00 / / 0      0.0001203   1.0000000
 // 00 /0 / 00 / / 0      1.0000000  -0.0001203

 CI vector for state symmetry 4
 ==============================

 // 00 00 / 0/ / / 0      0.0000348   1.0000000
 // 00 00 / /0 / / 0      1.0000000  -0.0000348


 **********************************************************************************************************************************
 DATASETS  * FILE   NREC   LENGTH (MB)   RECORD NAMES
              1      19      254.77       500      610      700      900      950      970     1000      129      960     1100   
                                          VAR    BASINP    GEOM    SYMINP    ZMAT    AOBASIS   BASIS     P2S    ABASIS      S 
                                         1400     1410     1200     1210     1080     1600     1650     1700     1380   
                                           T        V       H0       H01     AOSYM     SMH    MOLCAS    OPER     JKOP   

              2       6        9.32       200      700     1000      520     4202     5202   
                                        OPTIONS   GEOM     BASIS   MCVARS     RHF     MCSCF   

 PROGRAMS   *        TOTAL     MULTI       POP       RHF       INT
 CPU TIMES  *       412.32     70.28      0.00      3.42    337.64
 REAL TIME  *       526.01 SEC
 DISK USED  *         4.95 GB      
 SF USED    *       904.28 MB      
 GA USED    *         0.00 MB       (max)       0.00 MB       (current)
 **********************************************************************************************************************************


 PROGRAM * RHF-SCF (OPEN SHELL)       Authors: W. Meyer, H.-J. Werner


 NUMBER OF ELECTRONS:      40+   34-    SPACE SYMMETRY=8    SPIN SYMMETRY: Septet  
 CONVERGENCE THRESHOLDS:    1.00E-05 (Density)    1.48E-07 (Energy)
 MAX. NUMBER OF ITERATIONS:        0
 INTERPOLATION TYPE:            DIIS
 INTERPOLATION STEPS:              2 (START)      1 (STEP)
 LEVEL SHIFTS:                 -0.60 (CLOSED) -0.30 (OPEN) 


 Singly occupied orbitals:     10.1      11.1       3.4       3.6       3.7       2.8
 Molecular orbitals read from record     5202.2  Type=MCSCF/NATURAL  

 Molecular orbital dump at record        2129.2

 ITERATION    DDIFF          GRAD             ENERGY        2-EL.EN.            DIPOLE MOMENTS         DIIS   ORB.
    1      0.000D+00      0.000D+00    -17857.84317231  13251.970836    0.00000    0.00000    0.00000    0    start

 Final alpha occupancy:  11   6   6   3   6   3   3   2
 Final beta  occupancy:   9   6   6   2   6   2   2   1

 !RHF STATE 1.8 Energy               -17857.8431723145    
 Nuclear energy                         0.00000000
 One-electron energy               -24483.82859031
 Two-electron energy                 6625.98541799
 Virial quotient                       -0.99999187
 !RHF STATE 1.8 Dipole moment           0.00000000     0.00000000     0.00000000
 Dipole moment /Debye                   0.00000000     0.00000000     0.00000000

 Orbital energies:

         1.1          2.1          3.1          4.1          5.1          6.1          7.1          8.1          9.1         10.1
  -2709.715312  -460.071322  -112.129165   -87.590277   -87.589687   -27.209374   -16.502390   -16.500783    -6.502083    -2.751706

        11.1         12.1         13.1
     -2.754804    -1.723111    -0.988100

         1.2          2.2          3.2          4.2          5.2          6.2          7.2          8.2
   -441.795636  -103.492681   -23.424988    -7.176410    -7.175831    -5.148225    -1.431472    -0.896125

         1.3          2.3          3.3          4.3          5.3          6.3          7.3          8.3
   -441.795636  -103.492681   -23.424988    -7.176410    -7.175831    -5.148225    -1.431472    -0.896125

         1.4          2.4          3.4          4.4          5.4
    -87.589766   -16.500667    -2.752726    -0.985663    -0.583425

         1.5          2.5          3.5          4.5          5.5          6.5          7.5          8.5
   -441.795872  -103.493589   -23.426839    -7.177885    -7.175946    -5.152710    -1.435938    -0.902053

         1.6          2.6          3.6          4.6          5.6
    -87.590090   -16.502046    -2.753520    -0.987373    -0.584556

         1.7          2.7          3.7          4.7          5.7
    -87.590090   -16.502046    -2.753520    -0.987373    -0.584556

         1.8          2.8          3.8          4.8
     -7.177046    -0.899973    -0.336643     0.918363

 HOMO      2.8    -0.899973 =     -24.4895eV
 LUMO     12.1    -1.723111 =     -46.8882eV
 LUMO-HOMO        -0.823138 =     -22.3987eV


 **********************************************************************************************************************************
 DATASETS  * FILE   NREC   LENGTH (MB)   RECORD NAMES
              1      19      254.77       500      610      700      900      950      970     1000      129      960     1100   
                                          VAR    BASINP    GEOM    SYMINP    ZMAT    AOBASIS   BASIS     P2S    ABASIS      S 
                                         1400     1410     1200     1210     1080     1600     1650     1700     1380   
                                           T        V       H0       H01     AOSYM     SMH    MOLCAS    OPER     JKOP   

              2       7       13.16       200      700     1000      520     4202     5202     2129   
                                        OPTIONS   GEOM     BASIS   MCVARS     RHF     MCSCF     RHF  

 PROGRAMS   *        TOTAL       RHF     MULTI       POP       RHF       INT
 CPU TIMES  *       413.64      1.31     70.28      0.00      3.42    337.64
 REAL TIME  *       527.61 SEC
 DISK USED  *         4.95 GB      
 SF USED    *       904.28 MB      
 GA USED    *         0.00 MB       (max)       0.00 MB       (current)
 **********************************************************************************************************************************
 SETTING SCF(1)         =    -17857.84317231  AU                              

 DO I                   =         2.00000000   

 Running procedure=VIID55F1_D


 SYMMETRIES FROM ORBITAL RESTRICTIONS AND WF CARD NOT CONSISTENT:   8   8  MS2= 4  NOPEN= 6
