
 Primary working directories    : /global/cscratch1/sd/bkincaid
 Secondary working directories  : /global/cscratch1/sd/bkincaid
 Wavefunction directory         : /global/homes/b/bkincaid/wfu/
 Main file repository           : /global/cscratch1/sd/bkincaid/

 SHA1      : 19cd028119e0e09f93f0674bd8af7968d9b3eff6
 NAME      : 2015.1.36
 ARCHNAME  : linux/x86_64
 FC        : /opt/cray/pe/craype/2.5.14/bin/ftn
 BLASLIB   : -L/opt/intel/compilers_and_libraries_2018.1.163/linux/mkl/lib/intel64 -Wl,-_start-group -lmkl_intel_ilp64 -lmkl_intel_thread -lmkl_core -Wl,-_end-group -liomp5
 id        : lbl

 Nodes     nprocs
 nid01326    23
 Number of processes for MPI-2 version of Molpro:   nprocs(total)=   24   nprocs(compute)=   23   nprocs(helper)=    1

 Using customized tuning parameters: mindgm=7; mindgv=16; mindgc=1; mindgr=1; noblas=0; minvec=7
 default implementation of scratch files=sf  

 ***,Calculation for PdO groundstate
 memory,512,m
 gthresh,twoint=1.0E-12
 gthresh,throvl=1.0E-12
                                                                                 !symmetry,nosym
 
 basis={
 Including file /global/u1/b/bkincaid/molpro/Pd/molecules/PdO/tz/ecps/bk16.1/bk16.1
 Including file /global/u1/b/bkincaid/molpro/Pd/molecules/PdO/tz/ecps/bk16.1/Pd-aug-cc-pwCVTZ.basis
 ecp,O,2,1,0
 3
 1,  12.30997,  6.000000
 3,  14.76962,  73.85984
 2,  13.71419, -47.87600
 1
 2,  13.65512,  85.86406
 Including file /global/u1/b/bkincaid/molpro/Pd/molecules/PdO/tz/ecps/bk16.1/O-aug-cc-CVTZ.basis
 }
 
 OE=-75.09181489
 PdE=-5044.366379
 
 A1=6
 B1=3
 B2=3
 A2=1
 
 ne = 24
 do i=1,11
 z(i) = 1.985 - 0.05*(i-1)
 geometry={
         2
         PdO
         Pd 0.0 0.0 0.0
         O 0.0 0.0 z(i)
 }
 {rhf
 wf,nelec=ne,spin=2,sym=2
 occ,A1,B1,B2,A2
 closed,A1-1,B1-1,B2,A2
 }
 
 scf(i)=energy
 _CC_NORM_MAX=2.0
 {rccsd(t);maxit,100;core}
 ccsd(i)=energy
 enddo
 
 table,z,scf,ccsd
 save
 type,csv

 Variables initialized (889), CPU time= 0.01 sec
 Commands  initialized (702), CPU time= 0.01 sec, 572 directives.
 Default parameters read. Elapsed time= 0.54 sec

 Checking input...
 Passed
1


                                         ***  PROGRAM SYSTEM MOLPRO  ***
                                       Copyright, TTI GmbH Stuttgart, 2015
                                    Version 2015.1 linked Dec 29 2018 15:55:43


 **********************************************************************************************************************************
 LABEL *   Calculation for PdO groundstate                                               
  64 bit mpp version                                                                     DATE: 09-Apr-21          TIME: 11:04:15  
 **********************************************************************************************************************************

 SHA1:             19cd028119e0e09f93f0674bd8af7968d9b3eff6
 **********************************************************************************************************************************

 THRESHOLDS:

 ZERO    =  1.00D-12  ONEINT  =  1.00D-12  TWOINT  =  1.00D-12  PREFAC  =  1.00D-14  LOCALI  =  1.00D-09  EORDER  =  1.00D-04
 ENERGY  =  0.00D+00  ETEST   =  0.00D+00  EDENS   =  0.00D+00  THRDEDEF=  1.00D-06  GRADIENT=  1.00D-02  STEP    =  1.00D-03
 ORBITAL =  1.00D-05  CIVEC   =  1.00D-05  COEFF   =  1.00D-04  PRINTCI =  5.00D-02  PUNCHCI =  9.90D+01  OPTGRAD =  3.00D-04
 OPTENERG=  1.00D-06  OPTSTEP =  3.00D-04  THRGRAD =  1.00D-10  COMPRESS=  1.00D-11  VARMIN  =  1.00D-07  VARMAX  =  1.00D-03
 THRDOUB =  0.00D+00  THRDIV  =  1.00D-05  THRRED  =  1.00D-07  THRPSP  =  1.00D+00  THRDC   =  1.00D-10  THRCS   =  1.00D-10
 THRNRM  =  1.00D-08  THREQ   =  0.00D+00  THRDE   =  1.00D+00  THRREF  =  1.00D-05  SPARFAC =  1.00D+00  THRDLP  =  1.00D-07
 THRDIA  =  1.00D-10  THRDLS  =  1.00D-07  THRGPS  =  0.00D+00  THRKEX  =  0.00D+00  THRDIS  =  2.00D-01  THRVAR  =  1.00D-10
 THRLOC  =  1.00D-06  THRGAP  =  1.00D-06  THRLOCT = -1.00D+00  THRGAPT = -1.00D+00  THRORB  =  1.00D-06  THRMLTP =  0.00D+00
 THRCPQCI=  1.00D-10  KEXTA   =  0.00D+00  THRCOARS=  0.00D+00  SYMTOL  =  1.00D-06  GRADTOL =  1.00D-06  THROVL  =  1.00D-08
 THRORTH =  1.00D-08  GRID    =  1.00D-06  GRIDMAX =  1.00D-03  DTMAX   =  0.00D+00  THROCCDE=  1.00D-01  THROCCDE=  1.00D-01



 THRESHOLDS:

 ZERO    =  1.00D-12  ONEINT  =  1.00D-12  TWOINT  =  1.00D-12  PREFAC  =  1.00D-14  LOCALI  =  1.00D-09  EORDER  =  1.00D-04
 ENERGY  =  0.00D+00  ETEST   =  0.00D+00  EDENS   =  0.00D+00  THRDEDEF=  1.00D-06  GRADIENT=  1.00D-02  STEP    =  1.00D-03
 ORBITAL =  1.00D-05  CIVEC   =  1.00D-05  COEFF   =  1.00D-04  PRINTCI =  5.00D-02  PUNCHCI =  9.90D+01  OPTGRAD =  3.00D-04
 OPTENERG=  1.00D-06  OPTSTEP =  3.00D-04  THRGRAD =  1.00D-10  COMPRESS=  1.00D-11  VARMIN  =  1.00D-07  VARMAX  =  1.00D-03
 THRDOUB =  0.00D+00  THRDIV  =  1.00D-05  THRRED  =  1.00D-07  THRPSP  =  1.00D+00  THRDC   =  1.00D-10  THRCS   =  1.00D-10
 THRNRM  =  1.00D-08  THREQ   =  0.00D+00  THRDE   =  1.00D+00  THRREF  =  1.00D-05  SPARFAC =  1.00D+00  THRDLP  =  1.00D-07
 THRDIA  =  1.00D-10  THRDLS  =  1.00D-07  THRGPS  =  0.00D+00  THRKEX  =  0.00D+00  THRDIS  =  2.00D-01  THRVAR  =  1.00D-10
 THRLOC  =  1.00D-06  THRGAP  =  1.00D-06  THRLOCT = -1.00D+00  THRGAPT = -1.00D+00  THRORB  =  1.00D-06  THRMLTP =  0.00D+00
 THRCPQCI=  1.00D-10  KEXTA   =  0.00D+00  THRCOARS=  0.00D+00  SYMTOL  =  1.00D-06  GRADTOL =  1.00D-06  THROVL  =  1.00D-12
 THRORTH =  1.00D-08  GRID    =  1.00D-06  GRIDMAX =  1.00D-03  DTMAX   =  0.00D+00  THROCCDE=  1.00D-01  THROCCDE=  1.00D-01



 Variable memory set to  512000000 words,  buffer space   230000 words

 SETTING BASIS          =    USERDEF
 SETTING OE             =       -75.09181489                                  
 SETTING PDE            =     -5044.36637900                                  
 SETTING A1             =         6.00000000                                  
 SETTING B1             =         3.00000000                                  
 SETTING B2             =         3.00000000                                  
 SETTING A2             =         1.00000000                                  
 SETTING NE             =        24.00000000                                  

 DO I                   =         1.00000000   
 SETTING Z(1)           =         1.98500000                                  

Geometry recognized as XYZ



 Recomputing integrals since basis changed


 Using spherical harmonics



 PROGRAM * SEWARD (Integral evaluation for generally contracted gaussian basis sets)     Author: Roland Lindh, 1990

 Geometry written to block  1 of record 700


 Point group  C2v 



 ATOMIC COORDINATES

 NR  ATOM    CHARGE       X              Y              Z

   1  PD     18.00    0.000000000    0.000000000    0.000000000
   2  O       6.00    0.000000000    0.000000000    3.751106357

 Bond lengths in Bohr (Angstrom)

 1-2  3.751106357
     ( 1.985000000)

 NUCLEAR CHARGE:                   24
 NUMBER OF PRIMITIVE AOS:         370
 NUMBER OF SYMMETRY AOS:          313
 NUMBER OF CONTRACTIONS:          313   ( 138A1  +  71B1  +  71B2  +  33A2  )
 NUMBER OF CORE ORBITALS:           4   (   2A1  +   1B1  +   1B2  +   0A2  )
 NUMBER OF VALENCE ORBITALS:       10   (   5A1  +   2B1  +   2B2  +   1A2  )


 NUCLEAR REPULSION ENERGY   28.79150568

 EXTRA SYMMETRY OF AOS IN SYMMETRY 1:   1 1 1 1 1 1 1 1 1 1   1 1 1 1 1 1 1 1 1 1   1 1 1 1 1 1 1 1 1 1   1 1 1 1 1 1 1 1 1 1
                                        1 1 1 1 1 1 1 1 1 1   1 1 1 2 1 2 1 2 1 2   1 2 1 2 1 2 1 2 1 2   1 2 1 2 1 2 1 2 1 2
                                        1 2 1 2 1 2 1 2 1 2   1 2 1 2 1 3 2 1 3 2   1 3 2 1 1 1 1 1 1 1   1 1 1 1 1 1 1 1 1 1
                                        1 1 1 1 1 1 1 2 1 2   1 2 1 2 1 2 1 2
 EXTRA SYMMETRY OF AOS IN SYMMETRY 2:   1 1 1 1 1 1 1 1 1 1   1 1 1 1 1 1 1 1 1 1   1 1 1 1 1 1 1 1 1 1   1 1 1 1 1 1 1 1 1 1
                                        1 2 1 2 1 2 1 2 1 2   1 2 1 2 1 1 1 1 1 1   1 1 1 1 1 1 1 1 2 1   2
 EXTRA SYMMETRY OF AOS IN SYMMETRY 3:   1 1 1 1 1 1 1 1 1 1   1 1 1 1 1 1 1 1 1 1   1 1 1 1 1 1 1 1 1 1   1 1 1 1 1 1 1 1 1 1
                                        1 2 1 2 1 2 1 2 1 2   1 2 1 2 1 1 1 1 1 1   1 1 1 1 1 1 1 1 2 1   2
 EXTRA SYMMETRY OF AOS IN SYMMETRY 4:   1 1 1 1 1 1 1 1 1 1   1 1 1 1 1 1 1 1 1 1   1 1 2 1 2 1 2 1 1 1   1 1 1

 Eigenvalues of metric

         1 0.890E-06 0.944E-06 0.190E-05 0.902E-05 0.951E-05 0.125E-04 0.264E-04 0.367E-04
         2 0.955E-06 0.982E-06 0.936E-05 0.300E-03 0.471E-03 0.163E-02 0.217E-02 0.300E-02
         3 0.955E-06 0.982E-06 0.936E-05 0.300E-03 0.471E-03 0.163E-02 0.217E-02 0.300E-02
         4 0.951E-05 0.307E-03 0.302E-02 0.107E-01 0.287E-01 0.528E-01 0.881E-01 0.105E+00


 Contracted 2-electron integrals neglected if value below      1.0D-13
 AO integral compression algorithm  1   Integral accuracy      1.0D-13

     925.893 MB (compressed) written to integral file ( 30.8%)

     Node minimum: 17.302 MB, node maximum: 109.314 MB


 NUMBER OF SORTED TWO-ELECTRON INTEGRALS:   13592913.     BUFFER LENGTH:  32768
 NUMBER OF SEGMENTS:   1  SEGMENT LENGTH:   13592913      RECORD LENGTH: 524288

 Memory used in sort:      14.15 MW

 SORT1 READ   375719576. AND WROTE     5415814. INTEGRALS IN     16 RECORDS. CPU TIME:     6.23 SEC, REAL TIME:     7.83 SEC
 SORT2 READ   124261638. AND WROTE   312994044. INTEGRALS IN   2783 RECORDS. CPU TIME:     0.88 SEC, REAL TIME:     1.14 SEC

 Node minimum:    13561530.  Node maximum:    13694643. integrals

 OPERATOR DM      FOR CENTER  0  COORDINATES:    0.000000    0.000000    0.000000


 **********************************************************************************************************************************
 DATASETS  * FILE   NREC   LENGTH (MB)   RECORD NAMES
              1      19       21.20       500      610      700      900      950      970     1000      129      960     1100   
                                          VAR    BASINP    GEOM    SYMINP    ZMAT    AOBASIS   BASIS     P2S    ABASIS      S 
                                         1400     1410     1420     1200     1210     1080     1600     1650     1700   
                                           T        V       ECP      H0       H01     AOSYM     SMH    MOLCAS    OPER   

 PROGRAMS   *        TOTAL       INT
 CPU TIMES  *        26.21     25.72
 REAL TIME  *        29.78 SEC
 DISK USED  *         2.45 GB      
 GA USED    *         0.00 MB       (max)       0.00 MB       (current)
 **********************************************************************************************************************************


 PROGRAM * RHF-SCF (OPEN SHELL)       Authors: W. Meyer, H.-J. Werner


 NUMBER OF ELECTRONS:      13+   11-    SPACE SYMMETRY=2    SPIN SYMMETRY: Triplet 
 CONVERGENCE THRESHOLDS:    1.00E-05 (Density)    1.00E-07 (Energy)
 MAX. NUMBER OF ITERATIONS:       60
 INTERPOLATION TYPE:            DIIS
 INTERPOLATION STEPS:              2 (START)      1 (STEP)
 LEVEL SHIFTS:                 -0.60 (CLOSED) -0.30 (OPEN) 

 Number of closed-shell orbitals:   11 (   5   2   3   1 )
 Number of open-shell orbitals:      2 (   1   1   0   0 )


 Orbital guess generated from atomic densities. Full valence occupancy:    7   3   3   1

 Molecular orbital dump at record        2100.2

 ITERATION    DDIFF          GRAD             ENERGY        2-EL.EN.            DIPOLE MOMENTS         DIIS   ORB.
    1      0.000D+00      0.000D+00      -142.44621101    277.504148    0.00000    0.00000   -3.77090    0    start
    2      0.000D+00      0.712D-02      -142.50533636    280.440640    0.00000    0.00000   -1.82722    1    diag,B
    3      0.103D-01      0.604D-02      -142.53473329    279.035091    0.00000    0.00000   -2.13810    2    diag,B
    4      0.409D-02      0.155D-02      -142.54726287    279.339613    0.00000    0.00000   -1.96933    3    diag,B
    5      0.126D-02      0.128D-02      -142.55918176    279.347096    0.00000    0.00000   -1.87410    4    diag,B
    6      0.749D-03      0.109D-02      -142.57406562    279.353668    0.00000    0.00000   -1.85397    5    diag,B
    7      0.100D-02      0.905D-03      -142.59017292    279.170731    0.00000    0.00000   -1.98812    6    fixocc
    8      0.117D-02      0.664D-03      -142.59858580    278.844568    0.00000    0.00000   -2.16204    7    diag,B
    9      0.922D-03      0.454D-03      -142.60009423    278.798042    0.00000    0.00000   -2.24191    8    diag,B
   10      0.818D-03      0.554D-03      -142.60383927    278.561492    0.00000    0.00000   -2.35429    9    orth
   11      0.101D-02      0.482D-03      -142.60378437    278.433655    0.00000    0.00000   -2.39635    9    diag,B
   12      0.467D-03      0.231D-03      -142.60409121    278.503510    0.00000    0.00000   -2.36449    9    diag,B
   13      0.325D-03      0.902D-04      -142.60418944    278.481175    0.00000    0.00000   -2.37651    9    diag,B
   14      0.142D-03      0.270D-04      -142.60419555    278.478072    0.00000    0.00000   -2.37663    9    diag,B
   15      0.578D-04      0.134D-04      -142.60419701    278.477517    0.00000    0.00000   -2.37559    9    diag,B
   16      0.216D-04      0.547D-05      -142.60419737    278.478225    0.00000    0.00000   -2.37537    9    diag,B
   17      0.122D-04      0.363D-05      -142.60419756    278.478073    0.00000    0.00000   -2.37531    9    diag,B
   18      0.653D-05      0.344D-05      -142.60419770    278.478134    0.00000    0.00000   -2.37549    9    diag,B
   19      0.559D-05      0.264D-05      -142.60419779    278.478180    0.00000    0.00000   -2.37557    9    diag,B
   20      0.264D-05      0.184D-05      -142.60419788    278.478085    0.00000    0.00000   -2.37560    0    orth

 Final alpha occupancy:   6   3   3   1
 Final beta  occupancy:   5   2   3   1

 !RHF STATE 1.2 Energy               -142.604197876902
 Nuclear energy                        28.79150568
 One-electron energy                 -310.63474605
 Two-electron energy                  139.23904249
 Virial quotient                       -2.36747701
 !RHF STATE 1.2 Dipole moment           0.00000000     0.00000000    -2.37559512
 Dipole moment /Debye                   0.00000000     0.00000000    -6.03776503

 Orbital energies:

         1.1          2.1          3.1          4.1          5.1          6.1          7.1          8.1
     -4.005192    -2.567010    -1.143319    -0.458903    -0.455674    -0.455571    -0.015587     0.031546

         1.2          2.2          3.2          4.2          5.2
     -2.564664    -0.485021    -0.511245     0.021695     0.077308

         1.3          2.3          3.3          4.3          5.3
     -2.564474    -0.505253    -0.387436     0.022634     0.078670

         1.4          2.4          3.4
     -0.457954     0.093510     0.313651

 HOMO      3.3    -0.387436 =     -10.5427eV
 LUMO      7.1    -0.015587 =      -0.4241eV
 LUMO-HOMO         0.371849 =      10.1185eV


 **********************************************************************************************************************************
 DATASETS  * FILE   NREC   LENGTH (MB)   RECORD NAMES
              1      19       21.25       500      610      700      900      950      970     1000      129      960     1100   
                                          VAR    BASINP    GEOM    SYMINP    ZMAT    AOBASIS   BASIS     P2S    ABASIS      S 
                                         1400     1410     1420     1200     1210     1080     1600     1650     1700   
                                           T        V       ECP      H0       H01     AOSYM     SMH    MOLCAS    OPER   

              2       4        3.66       700     1000      520     2100   
                                         GEOM     BASIS   MCVARS     RHF  

 PROGRAMS   *        TOTAL       RHF       INT
 CPU TIMES  *        29.03      2.82     25.72
 REAL TIME  *        32.94 SEC
 DISK USED  *         3.13 GB      
 SF USED    *         0.12 MB      
 GA USED    *         0.00 MB       (max)       0.00 MB       (current)
 **********************************************************************************************************************************
 SETTING SCF(1)         =      -142.60419788  AU                              
 SETTING _CC_NORM_MAX   =         2.00000000                                  


 PROGRAM * CCSD (Restricted open-shell coupled cluster)     Authors: C. Hampel, H.-J. Werner, 1991, M. Deegan, P.J. Knowles, 1992


 Convergence thresholds:  THRVAR = 1.00D-08  THRDEN = 1.00D-06

 CCSD(T)     terms to be evaluated (factor= 1.000)


 Number of closed-shell orbitals:  11 (   5   2   3   1 )
 Number of active  orbitals:        2 (   1   1   0   0 )
 Number of external orbitals:     300 ( 132  68  68  32 )

 Memory could be reduced to 156.60 Mwords without degradation in triples

 Number of N-1 electron functions:              24
 Number of N-2 electron functions:             276
 Number of singly external CSFs:              2280
 Number of doubly external CSFs:           4894910
 Total number of CSFs:                     4897190

 Molecular orbitals read from record     2100.2  Type=RHF/CANONICAL (state 1.2)

 Integral transformation finished. Total CPU:   6.91 sec, npass=  1  Memory used:  15.00 MW

 Starting RMP2 calculation

 Wavefunction is spin-projected

 ITER.      SQ.NORM     CORR.ENERGY   TOTAL ENERGY   ENERGY CHANGE        DEN1      VAR(S)    VAR(P)  DIIS     TIME
   1      1.18101833    -0.95153051  -143.55572839    -0.95153051    -0.00161282  0.85D-05  0.57D-03  1  1     8.15
   2      1.18240902    -0.95324394  -143.55744182    -0.00171343    -0.00000534  0.22D-06  0.29D-05  2  2     9.18
   3      1.18248711    -0.95329277  -143.55749064    -0.00004882    -0.00000004  0.92D-08  0.18D-07  3  3    10.28
   4      1.18248906    -0.95329294  -143.55749082    -0.00000018    -0.00000000  0.27D-09  0.14D-09  4  4    11.19

 Norm of t1 vector:      0.04096592      S-energy:    -0.00574662      T1 diagnostic:  0.00044526
 Norm of t2 vector:      0.42521860      P-energy:    -0.94754632
                                         Alpha-Beta:  -0.67022382
                                         Alpha-Alpha: -0.15865385
                                         Beta-Beta:   -0.11866866

 Spin contamination <S**2-Sz**2-Sz>     0.00000000
  Reference energy                   -142.604197876902
  RHF-RMP2 correlation energy          -0.953292942854
 !RHF-RMP2 energy                    -143.557490819756
 (NB above energy spin projected)

 Starting RCCSD calculation

 ITER.      SQ.NORM     CORR.ENERGY   TOTAL ENERGY   ENERGY CHANGE        DEN1      VAR(S)    VAR(P)  DIIS     TIME
   1      1.16739141    -0.91149667  -143.51569455    -0.91149667    -0.02208357  0.82D-02  0.30D-02  1  1    18.43
   2      1.18322284    -0.92985701  -143.53405488    -0.01836034    -0.00264958  0.57D-03  0.85D-03  2  2    25.32
   3      1.19675648    -0.93266185  -143.53685973    -0.00280484    -0.00094146  0.10D-02  0.94D-04  3  3    31.88
   4      1.20857970    -0.93484529  -143.53904316    -0.00218343    -0.00041839  0.38D-03  0.66D-04  4  4    39.93
   5      1.23008821    -0.93729413  -143.54149201    -0.00244885    -0.00012858  0.10D-03  0.25D-04  5  5    46.52
   6      1.24458475    -0.93833682  -143.54253470    -0.00104269    -0.00003955  0.25D-04  0.11D-04  6  6    53.28
   7      1.25406204    -0.93891723  -143.54311511    -0.00058041    -0.00001149  0.66D-05  0.35D-05  6  1    60.06
   8      1.25590864    -0.93895882  -143.54315669    -0.00004158    -0.00000280  0.14D-05  0.90D-06  6  3    66.58
   9      1.25763060    -0.93908372  -143.54328160    -0.00012491    -0.00000054  0.24D-06  0.21D-06  6  2    74.14
  10      1.25742741    -0.93906769  -143.54326556     0.00001603    -0.00000013  0.78D-07  0.39D-07  6  5    81.54
  11      1.25753811    -0.93907308  -143.54327095    -0.00000539    -0.00000005  0.33D-07  0.12D-07  6  4    88.69
  12      1.25752153    -0.93907105  -143.54326893     0.00000202    -0.00000002  0.19D-07  0.22D-08  6  3    98.00
  13      1.25749402    -0.93906815  -143.54326603     0.00000290    -0.00000001  0.10D-07  0.12D-08  6  6   104.83
  14      1.25749522    -0.93906999  -143.54326787    -0.00000184    -0.00000000  0.42D-08  0.58D-09  6  1   112.12
  15      1.25747877    -0.93906887  -143.54326675     0.00000112    -0.00000000  0.17D-08  0.32D-09  6  2   118.40
  16      1.25747001    -0.93906819  -143.54326607     0.00000068    -0.00000000  0.80D-09  0.14D-09  6  5   126.21

 Norm of t1 vector:      0.25132819      S-energy:    -0.00630153      T1 diagnostic:  0.03542871
                                                                       D1 diagnostic:  0.11422843
 Norm of t2 vector:      0.44079945      P-energy:    -0.93276666
                                         Alpha-Beta:  -0.68347183
                                         Alpha-Alpha: -0.14034399
                                         Beta-Beta:   -0.10895084

 Singles amplitudes (print threshold =  0.500E-01):

         I         SYM. A    A   T(IA) [Alpha-Alpha]

         6         1         2     -0.06491926
 
         I         SYM. A    A   T(IA) [Beta-Beta]

         4         1         1     -0.09244207
         5         1         1     -0.13229986
         8         2         1      0.11073828

 Doubles amplitudes (print threshold =  0.500E-01):

         I         J         SYM. A    SYM. B    A         B      T(IJ, AB) [Beta-Beta]

         8         5         1         2         1         1      0.05557016
         8         5         2         1         1         1     -0.05557016

 Spin contamination <S**2-Sz**2-Sz>     0.00000000

 Memory could be reduced to 164.20 Mwords without degradation in triples
 

  Correlated core orbitals:             1.1       2.1       1.2       1.3
  Orbital energies:                    -4.0368   -2.6373   -2.5862   -2.5879
 
  RCCSD core-core energy               -0.119546918868
  RCCSD core-valence energy            -0.262002666305
  RCCSD valence correlation energy     -0.557518606833
 

 RESULTS
 =======

  Reference energy                   -142.604197876902
  RCCSD singles energy                 -0.006301530764
  RCCSD pair energy                    -0.932766661243
  RCCSD correlation energy             -0.939068192006
  Triples (T) contribution             -0.038988628895
  Total correlation energy             -0.978056820902
 
  RHF-RCCSD energy                   -143.543266068908
  RHF-RCCSD[T] energy                -143.586308484751
  RHF-RCCSD-T energy                 -143.581827248244
 !RHF-RCCSD(T) energy                -143.582254697804

 Program statistics:

 Available memory in ccsd:               511998418
 Min. memory needed in ccsd:              14064756
 Max. memory used in ccsd:                20157915
 Max. memory used in cckext:              15861012 (16 integral passes)
 Max. memory used in cckint:              15004909 ( 1 integral passes)



 **********************************************************************************************************************************
 DATASETS  * FILE   NREC   LENGTH (MB)   RECORD NAMES
              1      19       21.25       500      610      700      900      950      970     1000      129      960     1100   
                                          VAR    BASINP    GEOM    SYMINP    ZMAT    AOBASIS   BASIS     P2S    ABASIS      S 
                                         1400     1410     1420     1200     1210     1080     1600     1650     1700   
                                           T        V       ECP      H0       H01     AOSYM     SMH    MOLCAS    OPER   

              2       4        3.66       700     1000      520     2100   
                                         GEOM     BASIS   MCVARS     RHF  

 PROGRAMS   *        TOTAL  RCCSD(T)       RHF       INT
 CPU TIMES  *       238.05    208.97      2.82     25.72
 REAL TIME  *       346.09 SEC
 DISK USED  *        17.25 GB      
 SF USED    *         2.74 GB      
 GA USED    *         0.00 MB       (max)       0.00 MB       (current)
 **********************************************************************************************************************************
 SETTING CCSD(1)        =      -143.58225470  AU                              

 DO I                   =         2.00000000   
 SETTING Z(2)           =         1.93500000                                  

Geometry recognized as XYZ



 Recomputing integrals since geometry changed


 PROGRAM * SEWARD (Integral evaluation for generally contracted gaussian basis sets)     Author: Roland Lindh, 1990

 Geometry written to block  1 of record 700


 Point group  C2v 



 ATOMIC COORDINATES

 NR  ATOM    CHARGE       X              Y              Z

   1  PD     18.00    0.000000000    0.000000000    0.000000000
   2  O       6.00    0.000000000    0.000000000    3.656620051

 Bond lengths in Bohr (Angstrom)

 1-2  3.656620051
     ( 1.935000000)

 NUCLEAR CHARGE:                   24
 NUMBER OF PRIMITIVE AOS:         370
 NUMBER OF SYMMETRY AOS:          313
 NUMBER OF CONTRACTIONS:          313   ( 138A1  +  71B1  +  71B2  +  33A2  )
 NUMBER OF CORE ORBITALS:           4   (   2A1  +   1B1  +   1B2  +   0A2  )
 NUMBER OF VALENCE ORBITALS:       10   (   5A1  +   2B1  +   2B2  +   1A2  )


 NUCLEAR REPULSION ENERGY   29.53547224

 EXTRA SYMMETRY OF AOS IN SYMMETRY 1:   1 1 1 1 1 1 1 1 1 1   1 1 1 1 1 1 1 1 1 1   1 1 1 1 1 1 1 1 1 1   1 1 1 1 1 1 1 1 1 1
                                        1 1 1 1 1 1 1 1 1 1   1 1 1 2 1 2 1 2 1 2   1 2 1 2 1 2 1 2 1 2   1 2 1 2 1 2 1 2 1 2
                                        1 2 1 2 1 2 1 2 1 2   1 2 1 2 1 3 2 1 3 2   1 3 2 1 1 1 1 1 1 1   1 1 1 1 1 1 1 1 1 1
                                        1 1 1 1 1 1 1 2 1 2   1 2 1 2 1 2 1 2
 EXTRA SYMMETRY OF AOS IN SYMMETRY 2:   1 1 1 1 1 1 1 1 1 1   1 1 1 1 1 1 1 1 1 1   1 1 1 1 1 1 1 1 1 1   1 1 1 1 1 1 1 1 1 1
                                        1 2 1 2 1 2 1 2 1 2   1 2 1 2 1 1 1 1 1 1   1 1 1 1 1 1 1 1 2 1   2
 EXTRA SYMMETRY OF AOS IN SYMMETRY 3:   1 1 1 1 1 1 1 1 1 1   1 1 1 1 1 1 1 1 1 1   1 1 1 1 1 1 1 1 1 1   1 1 1 1 1 1 1 1 1 1
                                        1 2 1 2 1 2 1 2 1 2   1 2 1 2 1 1 1 1 1 1   1 1 1 1 1 1 1 1 2 1   2
 EXTRA SYMMETRY OF AOS IN SYMMETRY 4:   1 1 1 1 1 1 1 1 1 1   1 1 1 1 1 1 1 1 1 1   1 1 2 1 2 1 2 1 1 1   1 1 1

 Eigenvalues of metric

         1 0.880E-06 0.939E-06 0.189E-05 0.903E-05 0.951E-05 0.122E-04 0.262E-04 0.363E-04
         2 0.954E-06 0.982E-06 0.935E-05 0.299E-03 0.471E-03 0.163E-02 0.217E-02 0.299E-02
         3 0.954E-06 0.982E-06 0.935E-05 0.299E-03 0.471E-03 0.163E-02 0.217E-02 0.299E-02
         4 0.951E-05 0.307E-03 0.302E-02 0.107E-01 0.287E-01 0.528E-01 0.876E-01 0.105E+00


 Contracted 2-electron integrals neglected if value below      1.0D-13
 AO integral compression algorithm  1   Integral accuracy      1.0D-13

     936.116 MB (compressed) written to integral file ( 31.1%)

     Node minimum: 18.350 MB, node maximum: 109.314 MB


 NUMBER OF SORTED TWO-ELECTRON INTEGRALS:   13592913.     BUFFER LENGTH:  32768
 NUMBER OF SEGMENTS:   1  SEGMENT LENGTH:   13592913      RECORD LENGTH: 524288

 Memory used in sort:      14.15 MW

 SORT1 READ   375719576. AND WROTE     5483677. INTEGRALS IN     16 RECORDS. CPU TIME:     6.41 SEC, REAL TIME:     7.87 SEC
 SORT2 READ   125772589. AND WROTE   312994044. INTEGRALS IN   3266 RECORDS. CPU TIME:     0.53 SEC, REAL TIME:     0.75 SEC

 Node minimum:    13561530.  Node maximum:    13694643. integrals

 OPERATOR DM      FOR CENTER  0  COORDINATES:    0.000000    0.000000    0.000000


 **********************************************************************************************************************************
 DATASETS  * FILE   NREC   LENGTH (MB)   RECORD NAMES
              1      19       21.20       500      610      700      900      950      970     1000      129      960     1100   
                                          VAR    BASINP    GEOM    SYMINP    ZMAT    AOBASIS   BASIS     P2S    ABASIS      S 
                                         1400     1410     1420     1200     1210     1080     1600     1650     1700   
                                           T        V       ECP      H0       H01     AOSYM     SMH    MOLCAS    OPER   

              2       4        3.66       700     1000      520     2100   
                                         GEOM     BASIS   MCVARS     RHF  

 PROGRAMS   *        TOTAL       INT  RCCSD(T)       RHF       INT
 CPU TIMES  *       264.54     26.39    208.97      2.82     25.72
 REAL TIME  *       374.74 SEC
 DISK USED  *        17.48 GB      
 SF USED    *         2.74 GB      
 GA USED    *         0.00 MB       (max)       0.00 MB       (current)
 **********************************************************************************************************************************


 PROGRAM * RHF-SCF (OPEN SHELL)       Authors: W. Meyer, H.-J. Werner


 NUMBER OF ELECTRONS:      13+   11-    SPACE SYMMETRY=2    SPIN SYMMETRY: Triplet 
 CONVERGENCE THRESHOLDS:    1.00E-05 (Density)    1.00E-07 (Energy)
 MAX. NUMBER OF ITERATIONS:       60
 INTERPOLATION TYPE:            DIIS
 INTERPOLATION STEPS:              2 (START)      1 (STEP)
 LEVEL SHIFTS:                 -0.60 (CLOSED) -0.30 (OPEN) 

 Number of closed-shell orbitals:   11 (   5   2   3   1 )
 Number of open-shell orbitals:      2 (   1   1   0   0 )


 Molecular orbitals read from record     2100.2  Type=RHF/CANONICAL (state 1.2)

 Molecular orbital dump at record        2100.2

 ITERATION    DDIFF          GRAD             ENERGY        2-EL.EN.            DIPOLE MOMENTS         DIIS   ORB.
    1      0.000D+00      0.000D+00      -142.60292173    280.012427    0.00000    0.00000   -2.30318    0    start
    2      0.000D+00      0.184D-02      -142.60329603    279.966047    0.00000    0.00000   -2.29786    1    diag,B
    3      0.390D-03      0.149D-03      -142.60337156    279.980207    0.00000    0.00000   -2.29272    2    diag,B
    4      0.158D-03      0.787D-04      -142.60341407    279.967016    0.00000    0.00000   -2.28898    3    diag,B
    5      0.953D-04      0.467D-04      -142.60343564    279.972416    0.00000    0.00000   -2.28526    4    diag,B
    6      0.644D-04      0.277D-04      -142.60344756    279.971355    0.00000    0.00000   -2.28166    5    diag,B
    7      0.552D-04      0.121D-04      -142.60344997    279.972643    0.00000    0.00000   -2.28007    6    diag,B
    8      0.249D-04      0.503D-05      -142.60345033    279.972748    0.00000    0.00000   -2.27973    7    orth
    9      0.109D-04      0.267D-05      -142.60345044    279.972814    0.00000    0.00000   -2.27968    8    diag,B
   10      0.614D-05      0.189D-05      -142.60345051    279.972667    0.00000    0.00000   -2.27971    9    diag,B
   11      0.288D-05      0.149D-05      -142.60345056    279.972533    0.00000    0.00000   -2.27977    0    orth

 Final alpha occupancy:   6   3   3   1
 Final beta  occupancy:   5   2   3   1

 !RHF STATE 1.2 Energy               -142.603450560808
 Nuclear energy                        29.53547224
 One-electron energy                 -312.12518908
 Two-electron energy                  139.98626628
 Virial quotient                       -2.36617389
 !RHF STATE 1.2 Dipole moment           0.00000000     0.00000000    -2.27976537
 Dipole moment /Debye                   0.00000000     0.00000000    -5.79420606

 Orbital energies:

         1.1          2.1          3.1          4.1          5.1          6.1          7.1          8.1
     -4.002229    -2.564869    -1.151790    -0.467722    -0.454419    -0.443142    -0.013579     0.032236

         1.2          2.2          3.2          4.2          5.2
     -2.561384    -0.483648    -0.514077     0.022079     0.078118

         1.3          2.3          3.3          4.3          5.3
     -2.561162    -0.508946    -0.386829     0.023026     0.079535

         1.4          2.4          3.4
     -0.454687     0.093938     0.314724

 HOMO      3.3    -0.386829 =     -10.5262eV
 LUMO      7.1    -0.013579 =      -0.3695eV
 LUMO-HOMO         0.373250 =      10.1566eV


 **********************************************************************************************************************************
 DATASETS  * FILE   NREC   LENGTH (MB)   RECORD NAMES
              1      19       21.25       500      610      700      900      950      970     1000      129      960     1100   
                                          VAR    BASINP    GEOM    SYMINP    ZMAT    AOBASIS   BASIS     P2S    ABASIS      S 
                                         1400     1410     1420     1200     1210     1080     1600     1650     1700   
                                           T        V       ECP      H0       H01     AOSYM     SMH    MOLCAS    OPER   

              2       4        3.66       700     1000      520     2100   
                                         GEOM     BASIS   MCVARS     RHF  

 PROGRAMS   *        TOTAL       RHF       INT  RCCSD(T)       RHF       INT
 CPU TIMES  *       265.79      1.25     26.39    208.97      2.82     25.72
 REAL TIME  *       376.24 SEC
 DISK USED  *        17.48 GB      
 SF USED    *         2.74 GB      
 GA USED    *         0.00 MB       (max)       0.00 MB       (current)
 **********************************************************************************************************************************
 SETTING SCF(2)         =      -142.60345056  AU                              
 SETTING _CC_NORM_MAX   =         2.00000000                                  


 PROGRAM * CCSD (Restricted open-shell coupled cluster)     Authors: C. Hampel, H.-J. Werner, 1991, M. Deegan, P.J. Knowles, 1992


 Convergence thresholds:  THRVAR = 1.00D-08  THRDEN = 1.00D-06

 CCSD(T)     terms to be evaluated (factor= 1.000)


 Number of closed-shell orbitals:  11 (   5   2   3   1 )
 Number of active  orbitals:        2 (   1   1   0   0 )
 Number of external orbitals:     300 ( 132  68  68  32 )

 Memory could be reduced to 163.04 Mwords without degradation in triples

 Number of N-1 electron functions:              24
 Number of N-2 electron functions:             276
 Number of singly external CSFs:              2280
 Number of doubly external CSFs:           4894910
 Total number of CSFs:                     4897190

 Molecular orbitals read from record     2100.2  Type=RHF/CANONICAL (state 1.2)

 Integral transformation finished. Total CPU:   6.50 sec, npass=  1  Memory used:  15.00 MW

 Starting RMP2 calculation

 Wavefunction is spin-projected

 ITER.      SQ.NORM     CORR.ENERGY   TOTAL ENERGY   ENERGY CHANGE        DEN1      VAR(S)    VAR(P)  DIIS     TIME
   1      1.18206507    -0.95536202  -143.55881258    -0.95536202    -0.00161623  0.96D-05  0.57D-03  1  1     7.80
   2      1.18345495    -0.95707915  -143.56052971    -0.00171713    -0.00000541  0.24D-06  0.29D-05  2  2     8.63
   3      1.18353285    -0.95712790  -143.56057846    -0.00004875    -0.00000004  0.95D-08  0.18D-07  3  3     9.77
   4      1.18353489    -0.95712813  -143.56057869    -0.00000023    -0.00000000  0.24D-09  0.16D-09  4  4    11.09

 Norm of t1 vector:      0.04114618      S-energy:    -0.00570279      T1 diagnostic:  0.00047759
 Norm of t2 vector:      0.42642922      P-energy:    -0.95142534
                                         Alpha-Beta:  -0.67221890
                                         Alpha-Alpha: -0.15936623
                                         Beta-Beta:   -0.11984021

 Spin contamination <S**2-Sz**2-Sz>     0.00000000
  Reference energy                   -142.603450560808
  RHF-RMP2 correlation energy          -0.957128130503
 !RHF-RMP2 energy                    -143.560578691311
 (NB above energy spin projected)

 Starting RCCSD calculation

 ITER.      SQ.NORM     CORR.ENERGY   TOTAL ENERGY   ENERGY CHANGE        DEN1      VAR(S)    VAR(P)  DIIS     TIME
   1      1.16790853    -0.91362295  -143.51707351    -0.91362295    -0.02278069  0.86D-02  0.31D-02  1  1    18.31
   2      1.18407464    -0.93241135  -143.53586192    -0.01878840    -0.00275519  0.61D-03  0.87D-03  2  2    25.54
   3      1.19825987    -0.93529554  -143.53874610    -0.00288419    -0.00100092  0.11D-02  0.10D-03  3  3    32.70
   4      1.21104115    -0.93760253  -143.54105309    -0.00230699    -0.00045454  0.41D-03  0.71D-04  4  4    40.48
   5      1.23532762    -0.94031109  -143.54376165    -0.00270856    -0.00013889  0.11D-03  0.27D-04  5  5    47.64
   6      1.25190945    -0.94147434  -143.54492490    -0.00116325    -0.00004167  0.26D-04  0.11D-04  6  6    54.69
   7      1.26243275    -0.94210600  -143.54555656    -0.00063166    -0.00001148  0.69D-05  0.33D-05  6  1    62.49
   8      1.26509074    -0.94223552  -143.54568609    -0.00012953    -0.00000243  0.13D-05  0.74D-06  6  2    69.56
   9      1.26595732    -0.94225415  -143.54570471    -0.00001863    -0.00000053  0.27D-06  0.18D-06  6  4    76.85
  10      1.26582279    -0.94225228  -143.54570284     0.00000187    -0.00000010  0.65D-07  0.27D-07  6  3    87.34
  11      1.26582214    -0.94224805  -143.54569861     0.00000423    -0.00000005  0.32D-07  0.12D-07  6  4    94.66
  12      1.26581572    -0.94224888  -143.54569944    -0.00000083    -0.00000002  0.15D-07  0.22D-08  6  5   101.88
  13      1.26577520    -0.94224572  -143.54569628     0.00000316    -0.00000001  0.61D-08  0.10D-08  6  2   109.10
  14      1.26578427    -0.94224678  -143.54569734    -0.00000106    -0.00000000  0.29D-08  0.48D-09  6  6   118.19
  15      1.26577050    -0.94224582  -143.54569638     0.00000096    -0.00000000  0.15D-08  0.29D-09  6  3   126.20

 Norm of t1 vector:      0.26160183      S-energy:    -0.00624645      T1 diagnostic:  0.03693392
                                                                       D1 diagnostic:  0.11301012
 Norm of t2 vector:      0.44422402      P-energy:    -0.93599937
                                         Alpha-Beta:  -0.68482526
                                         Alpha-Alpha: -0.14074492
                                         Beta-Beta:   -0.11042919

 Singles amplitudes (print threshold =  0.500E-01):

         I         SYM. A    A   T(IA) [Alpha-Alpha]

         6         1         2     -0.07007147
 
         I         SYM. A    A   T(IA) [Beta-Beta]

         4         1         1     -0.15880859
         8         2         1      0.12892473

 Doubles amplitudes (print threshold =  0.500E-01):

         I         J         SYM. A    SYM. B    A         B      T(IJ, AB) [Beta-Beta]

         8         4         1         2         1         1      0.07538874
         8         4         2         1         1         1     -0.07538874

 Spin contamination <S**2-Sz**2-Sz>     0.00000000

 Memory could be reduced to 164.20 Mwords without degradation in triples
 

  Correlated core orbitals:             1.1       2.1       1.2       1.3
  Orbital energies:                    -4.0333   -2.6337   -2.5826   -2.5841
 
  RCCSD core-core energy               -0.119422217140
  RCCSD core-valence energy            -0.262293243645
  RCCSD valence correlation energy     -0.560530357896
 

 RESULTS
 =======

  Reference energy                   -142.603450560808
  RCCSD singles energy                 -0.006246449021
  RCCSD pair energy                    -0.935999369661
  RCCSD correlation energy             -0.942245818682
  Triples (T) contribution             -0.039634207643
  Total correlation energy             -0.981880026325
 
  RHF-RCCSD energy                   -143.545696379490
  RHF-RCCSD[T] energy                -143.589625238328
  RHF-RCCSD-T energy                 -143.584953753380
 !RHF-RCCSD(T) energy                -143.585330587133

 Program statistics:

 Available memory in ccsd:               511998418
 Min. memory needed in ccsd:              14064756
 Max. memory used in ccsd:                20157915
 Max. memory used in cckext:              15861012 (15 integral passes)
 Max. memory used in cckint:              15004909 ( 1 integral passes)



 **********************************************************************************************************************************
 DATASETS  * FILE   NREC   LENGTH (MB)   RECORD NAMES
              1      19       21.25       500      610      700      900      950      970     1000      129      960     1100   
                                          VAR    BASINP    GEOM    SYMINP    ZMAT    AOBASIS   BASIS     P2S    ABASIS      S 
                                         1400     1410     1420     1200     1210     1080     1600     1650     1700   
                                           T        V       ECP      H0       H01     AOSYM     SMH    MOLCAS    OPER   

              2       4        3.66       700     1000      520     2100   
                                         GEOM     BASIS   MCVARS     RHF  

 PROGRAMS   *        TOTAL  RCCSD(T)       RHF       INT  RCCSD(T)       RHF       INT
 CPU TIMES  *       473.22    207.38      1.25     26.39    208.97      2.82     25.72
 REAL TIME  *       694.79 SEC
 DISK USED  *        17.48 GB      
 SF USED    *         2.74 GB      
 GA USED    *         0.00 MB       (max)       0.00 MB       (current)
 **********************************************************************************************************************************
 SETTING CCSD(2)        =      -143.58533059  AU                              

 DO I                   =         3.00000000   
 SETTING Z(3)           =         1.88500000                                  

Geometry recognized as XYZ



 Recomputing integrals since geometry changed


 PROGRAM * SEWARD (Integral evaluation for generally contracted gaussian basis sets)     Author: Roland Lindh, 1990

 Geometry written to block  1 of record 700


 Point group  C2v 



 ATOMIC COORDINATES

 NR  ATOM    CHARGE       X              Y              Z

   1  PD     18.00    0.000000000    0.000000000    0.000000000
   2  O       6.00    0.000000000    0.000000000    3.562133745

 Bond lengths in Bohr (Angstrom)

 1-2  3.562133745
     ( 1.885000000)

 NUCLEAR CHARGE:                   24
 NUMBER OF PRIMITIVE AOS:         370
 NUMBER OF SYMMETRY AOS:          313
 NUMBER OF CONTRACTIONS:          313   ( 138A1  +  71B1  +  71B2  +  33A2  )
 NUMBER OF CORE ORBITALS:           4   (   2A1  +   1B1  +   1B2  +   0A2  )
 NUMBER OF VALENCE ORBITALS:       10   (   5A1  +   2B1  +   2B2  +   1A2  )


 NUCLEAR REPULSION ENERGY   30.31890651

 EXTRA SYMMETRY OF AOS IN SYMMETRY 1:   1 1 1 1 1 1 1 1 1 1   1 1 1 1 1 1 1 1 1 1   1 1 1 1 1 1 1 1 1 1   1 1 1 1 1 1 1 1 1 1
                                        1 1 1 1 1 1 1 1 1 1   1 1 1 2 1 2 1 2 1 2   1 2 1 2 1 2 1 2 1 2   1 2 1 2 1 2 1 2 1 2
                                        1 2 1 2 1 2 1 2 1 2   1 2 1 2 1 3 2 1 3 2   1 3 2 1 1 1 1 1 1 1   1 1 1 1 1 1 1 1 1 1
                                        1 1 1 1 1 1 1 2 1 2   1 2 1 2 1 2 1 2
 EXTRA SYMMETRY OF AOS IN SYMMETRY 2:   1 1 1 1 1 1 1 1 1 1   1 1 1 1 1 1 1 1 1 1   1 1 1 1 1 1 1 1 1 1   1 1 1 1 1 1 1 1 1 1
                                        1 2 1 2 1 2 1 2 1 2   1 2 1 2 1 1 1 1 1 1   1 1 1 1 1 1 1 1 2 1   2
 EXTRA SYMMETRY OF AOS IN SYMMETRY 3:   1 1 1 1 1 1 1 1 1 1   1 1 1 1 1 1 1 1 1 1   1 1 1 1 1 1 1 1 1 1   1 1 1 1 1 1 1 1 1 1
                                        1 2 1 2 1 2 1 2 1 2   1 2 1 2 1 1 1 1 1 1   1 1 1 1 1 1 1 1 2 1   2
 EXTRA SYMMETRY OF AOS IN SYMMETRY 4:   1 1 1 1 1 1 1 1 1 1   1 1 1 1 1 1 1 1 1 1   1 1 2 1 2 1 2 1 1 1   1 1 1

 Eigenvalues of metric

         1 0.870E-06 0.933E-06 0.188E-05 0.903E-05 0.951E-05 0.119E-04 0.260E-04 0.358E-04
         2 0.953E-06 0.982E-06 0.934E-05 0.298E-03 0.471E-03 0.163E-02 0.217E-02 0.299E-02
         3 0.953E-06 0.982E-06 0.934E-05 0.298E-03 0.471E-03 0.163E-02 0.217E-02 0.299E-02
         4 0.951E-05 0.307E-03 0.302E-02 0.107E-01 0.287E-01 0.528E-01 0.871E-01 0.105E+00


 Contracted 2-electron integrals neglected if value below      1.0D-13
 AO integral compression algorithm  1   Integral accuracy      1.0D-13

     946.340 MB (compressed) written to integral file ( 31.5%)

     Node minimum: 18.874 MB, node maximum: 109.314 MB


 NUMBER OF SORTED TWO-ELECTRON INTEGRALS:   13592913.     BUFFER LENGTH:  32768
 NUMBER OF SEGMENTS:   1  SEGMENT LENGTH:   13592913      RECORD LENGTH: 524288

 Memory used in sort:      14.15 MW

 SORT1 READ   375719576. AND WROTE     5553162. INTEGRALS IN     16 RECORDS. CPU TIME:     6.45 SEC, REAL TIME:     8.04 SEC
 SORT2 READ   127330145. AND WROTE   312994044. INTEGRALS IN   2691 RECORDS. CPU TIME:     1.29 SEC, REAL TIME:     1.58 SEC

 Node minimum:    13561530.  Node maximum:    13694643. integrals

 OPERATOR DM      FOR CENTER  0  COORDINATES:    0.000000    0.000000    0.000000


 **********************************************************************************************************************************
 DATASETS  * FILE   NREC   LENGTH (MB)   RECORD NAMES
              1      19       21.20       500      610      700      900      950      970     1000      129      960     1100   
                                          VAR    BASINP    GEOM    SYMINP    ZMAT    AOBASIS   BASIS     P2S    ABASIS      S 
                                         1400     1410     1420     1200     1210     1080     1600     1650     1700   
                                           T        V       ECP      H0       H01     AOSYM     SMH    MOLCAS    OPER   

              2       4        3.66       700     1000      520     2100   
                                         GEOM     BASIS   MCVARS     RHF  

 PROGRAMS   *        TOTAL       INT  RCCSD(T)       RHF       INT  RCCSD(T)       RHF       INT
 CPU TIMES  *       500.54     27.32    207.38      1.25     26.39    208.97      2.82     25.72
 REAL TIME  *       724.42 SEC
 DISK USED  *        17.51 GB      
 SF USED    *         2.74 GB      
 GA USED    *         0.00 MB       (max)       0.00 MB       (current)
 **********************************************************************************************************************************


 PROGRAM * RHF-SCF (OPEN SHELL)       Authors: W. Meyer, H.-J. Werner


 NUMBER OF ELECTRONS:      13+   11-    SPACE SYMMETRY=2    SPIN SYMMETRY: Triplet 
 CONVERGENCE THRESHOLDS:    1.00E-05 (Density)    1.00E-07 (Energy)
 MAX. NUMBER OF ITERATIONS:       60
 INTERPOLATION TYPE:            DIIS
 INTERPOLATION STEPS:              2 (START)      1 (STEP)
 LEVEL SHIFTS:                 -0.60 (CLOSED) -0.30 (OPEN) 

 Number of closed-shell orbitals:   11 (   5   2   3   1 )
 Number of open-shell orbitals:      2 (   1   1   0   0 )


 Molecular orbitals read from record     2100.2  Type=RHF/CANONICAL (state 1.2)

 Molecular orbital dump at record        2100.2

 ITERATION    DDIFF          GRAD             ENERGY        2-EL.EN.            DIPOLE MOMENTS         DIIS   ORB.
    1      0.000D+00      0.000D+00      -142.60037316    281.571632    0.00000    0.00000   -2.20852    0    start
    2      0.000D+00      0.201D-02      -142.60082889    281.520294    0.00000    0.00000   -2.20445    1    diag,B
    3      0.431D-03      0.165D-03      -142.60092364    281.534049    0.00000    0.00000   -2.19888    2    diag,B
    4      0.165D-03      0.875D-04      -142.60097799    281.517944    0.00000    0.00000   -2.19494    3    diag,B
    5      0.103D-03      0.525D-04      -142.60100610    281.522783    0.00000    0.00000   -2.19067    4    diag,B
    6      0.731D-04      0.315D-04      -142.60102248    281.520202    0.00000    0.00000   -2.18622    5    diag,B
    7      0.661D-04      0.141D-04      -142.60102600    281.521053    0.00000    0.00000   -2.18411    6    diag,B
    8      0.306D-04      0.614D-05      -142.60102657    281.520920    0.00000    0.00000   -2.18356    7    orth
    9      0.129D-04      0.325D-05      -142.60102674    281.520914    0.00000    0.00000   -2.18341    8    diag,B
   10      0.816D-05      0.208D-05      -142.60102682    281.520668    0.00000    0.00000   -2.18342    9    diag,B
   11      0.384D-05      0.145D-05      -142.60102686    281.520486    0.00000    0.00000   -2.18350    0    orth

 Final alpha occupancy:   6   3   3   1
 Final beta  occupancy:   5   2   3   1

 !RHF STATE 1.2 Energy               -142.601026861694
 Nuclear energy                        30.31890651
 One-electron energy                 -313.68017639
 Two-electron energy                  140.76024302
 Virial quotient                       -2.36472769
 !RHF STATE 1.2 Dipole moment           0.00000000     0.00000000    -2.18349603
 Dipole moment /Debye                   0.00000000     0.00000000    -5.54952984

 Orbital energies:

         1.1          2.1          3.1          4.1          5.1          6.1          7.1          8.1
     -3.999779    -2.563528    -1.161068    -0.479085    -0.451558    -0.429750    -0.011535     0.032829

         1.2          2.2          3.2          4.2          5.2
     -2.558516    -0.483288    -0.516453     0.022444     0.078881

         1.3          2.3          3.3          4.3          5.3
     -2.558242    -0.514408    -0.385478     0.023403     0.080367

         1.4          2.4          3.4
     -0.451747     0.094362     0.315759

 HOMO      3.3    -0.385478 =     -10.4894eV
 LUMO      7.1    -0.011535 =      -0.3139eV
 LUMO-HOMO         0.373943 =      10.1755eV


 **********************************************************************************************************************************
 DATASETS  * FILE   NREC   LENGTH (MB)   RECORD NAMES
              1      19       21.25       500      610      700      900      950      970     1000      129      960     1100   
                                          VAR    BASINP    GEOM    SYMINP    ZMAT    AOBASIS   BASIS     P2S    ABASIS      S 
                                         1400     1410     1420     1200     1210     1080     1600     1650     1700   
                                           T        V       ECP      H0       H01     AOSYM     SMH    MOLCAS    OPER   

              2       4        3.66       700     1000      520     2100   
                                         GEOM     BASIS   MCVARS     RHF  

 PROGRAMS   *        TOTAL       RHF       INT  RCCSD(T)       RHF       INT  RCCSD(T)       RHF       INT
 CPU TIMES  *       501.81      1.27     27.32    207.38      1.25     26.39    208.97      2.82     25.72
 REAL TIME  *       725.94 SEC
 DISK USED  *        17.51 GB      
 SF USED    *         2.74 GB      
 GA USED    *         0.00 MB       (max)       0.00 MB       (current)
 **********************************************************************************************************************************
 SETTING SCF(3)         =      -142.60102686  AU                              
 SETTING _CC_NORM_MAX   =         2.00000000                                  


 PROGRAM * CCSD (Restricted open-shell coupled cluster)     Authors: C. Hampel, H.-J. Werner, 1991, M. Deegan, P.J. Knowles, 1992


 Convergence thresholds:  THRVAR = 1.00D-08  THRDEN = 1.00D-06

 CCSD(T)     terms to be evaluated (factor= 1.000)


 Number of closed-shell orbitals:  11 (   5   2   3   1 )
 Number of active  orbitals:        2 (   1   1   0   0 )
 Number of external orbitals:     300 ( 132  68  68  32 )

 Memory could be reduced to 163.04 Mwords without degradation in triples

 Number of N-1 electron functions:              24
 Number of N-2 electron functions:             276
 Number of singly external CSFs:              2280
 Number of doubly external CSFs:           4894910
 Total number of CSFs:                     4897190

 Molecular orbitals read from record     2100.2  Type=RHF/CANONICAL (state 1.2)

 Integral transformation finished. Total CPU:   6.22 sec, npass=  1  Memory used:  15.00 MW

 Starting RMP2 calculation

 Wavefunction is spin-projected

 ITER.      SQ.NORM     CORR.ENERGY   TOTAL ENERGY   ENERGY CHANGE        DEN1      VAR(S)    VAR(P)  DIIS     TIME
   1      1.18346658    -0.95993685  -143.56096371    -0.95993685    -0.00163153  0.11D-04  0.58D-03  1  1     7.85
   2      1.18487198    -0.96167086  -143.56269772    -0.00173401    -0.00000566  0.29D-06  0.30D-05  2  2     9.08
   3      1.18495179    -0.96172059  -143.56274745    -0.00004973    -0.00000004  0.11D-07  0.19D-07  3  3    10.28
   4      1.18495399    -0.96172088  -143.56274774    -0.00000029    -0.00000000  0.27D-09  0.18D-09  4  4    11.11

 Norm of t1 vector:      0.04142267      S-energy:    -0.00565131      T1 diagnostic:  0.00051868
 Norm of t2 vector:      0.42806326      P-energy:    -0.95606957
                                         Alpha-Beta:  -0.67464742
                                         Alpha-Alpha: -0.16019941
                                         Beta-Beta:   -0.12122274

 Spin contamination <S**2-Sz**2-Sz>     0.00000000
  Reference energy                   -142.601026861694
  RHF-RMP2 correlation energy          -0.961720877967
 !RHF-RMP2 energy                    -143.562747739660
 (NB above energy spin projected)

 Starting RCCSD calculation

 ITER.      SQ.NORM     CORR.ENERGY   TOTAL ENERGY   ENERGY CHANGE        DEN1      VAR(S)    VAR(P)  DIIS     TIME
   1      1.16858339    -0.91616468  -143.51719154    -0.91616468    -0.02357634  0.90D-02  0.32D-02  1  1    18.21
   2      1.18524352    -0.93545308  -143.53647994    -0.01928840    -0.00288177  0.68D-03  0.90D-03  2  2    26.68
   3      1.20031106    -0.93845174  -143.53947860    -0.00299866    -0.00107872  0.11D-02  0.11D-03  3  3    36.98
   4      1.21443152    -0.94092748  -143.54195435    -0.00247574    -0.00050183  0.45D-03  0.78D-04  4  4    43.53
   5      1.24263754    -0.94398933  -143.54501619    -0.00306184    -0.00015135  0.12D-03  0.28D-04  5  5    51.59
   6      1.26182828    -0.94529819  -143.54632506    -0.00130887    -0.00004373  0.27D-04  0.11D-04  6  6    59.06
   7      1.27345018    -0.94598249  -143.54700935    -0.00068430    -0.00001144  0.71D-05  0.31D-05  6  1    66.55
   8      1.27607574    -0.94610534  -143.54713220    -0.00012285    -0.00000230  0.13D-05  0.66D-06  6  2    74.21
   9      1.27690978    -0.94612252  -143.54714938    -0.00001718    -0.00000049  0.27D-06  0.15D-06  6  4    82.69
  10      1.27675827    -0.94611933  -143.54714619     0.00000319    -0.00000010  0.72D-07  0.23D-07  6  3    91.70
  11      1.27678822    -0.94611679  -143.54714366     0.00000254    -0.00000005  0.36D-07  0.11D-07  6  4   100.23
  12      1.27676074    -0.94611572  -143.54714258     0.00000108    -0.00000002  0.17D-07  0.22D-08  6  2   109.70
  13      1.27674342    -0.94611357  -143.54714043     0.00000215    -0.00000001  0.66D-08  0.12D-08  6  5   118.57
  14      1.27677289    -0.94611632  -143.54714318    -0.00000275    -0.00000000  0.31D-08  0.48D-09  6  6   125.48
  15      1.27677786    -0.94611636  -143.54714322    -0.00000004    -0.00000000  0.14D-08  0.20D-09  6  1   140.17

 Norm of t1 vector:      0.27489372      S-energy:    -0.00618877      T1 diagnostic:  0.03887278
                                                                       D1 diagnostic:  0.11182436
 Norm of t2 vector:      0.44856583      P-energy:    -0.93992759
                                         Alpha-Beta:  -0.68654126
                                         Alpha-Alpha: -0.14118738
                                         Beta-Beta:   -0.11219895

 Singles amplitudes (print threshold =  0.500E-01):

         I         SYM. A    A   T(IA) [Alpha-Alpha]

         6         1         2     -0.07530646
 
         I         SYM. A    A   T(IA) [Beta-Beta]

         4         1         1     -0.15787935
         8         2         1      0.14946977

 Doubles amplitudes (print threshold =  0.500E-01):

         I         J         SYM. A    SYM. B    A         B      T(IJ, AB) [Beta-Beta]

         8         4         1         2         1         1      0.08176477
         8         4         2         1         1         1     -0.08176477

 Spin contamination <S**2-Sz**2-Sz>     0.00000000

 Memory could be reduced to 164.20 Mwords without degradation in triples
 

  Correlated core orbitals:             1.1       2.1       1.2       1.3
  Orbital energies:                    -4.0303   -2.6306   -2.5793   -2.5806
 
  RCCSD core-core energy               -0.119276084571
  RCCSD core-valence energy            -0.262617013606
  RCCSD valence correlation energy     -0.564223263790
 

 RESULTS
 =======

  Reference energy                   -142.601026861694
  RCCSD singles energy                 -0.006188770710
  RCCSD pair energy                    -0.939927591257
  RCCSD correlation energy             -0.946116361966
  Triples (T) contribution             -0.040417957539
  Total correlation energy             -0.986534319505
 
  RHF-RCCSD energy                   -143.547143223660
  RHF-RCCSD[T] energy                -143.592178202070
  RHF-RCCSD-T energy                 -143.587248050623
 !RHF-RCCSD(T) energy                -143.587561181199

 Program statistics:

 Available memory in ccsd:               511998418
 Min. memory needed in ccsd:              14064756
 Max. memory used in ccsd:                20157915
 Max. memory used in cckext:              15861012 (15 integral passes)
 Max. memory used in cckint:              15004909 ( 1 integral passes)



 **********************************************************************************************************************************
 DATASETS  * FILE   NREC   LENGTH (MB)   RECORD NAMES
              1      19       21.25       500      610      700      900      950      970     1000      129      960     1100   
                                          VAR    BASINP    GEOM    SYMINP    ZMAT    AOBASIS   BASIS     P2S    ABASIS      S 
                                         1400     1410     1420     1200     1210     1080     1600     1650     1700   
                                           T        V       ECP      H0       H01     AOSYM     SMH    MOLCAS    OPER   

              2       4        3.66       700     1000      520     2100   
                                         GEOM     BASIS   MCVARS     RHF  

 PROGRAMS   *        TOTAL  RCCSD(T)       RHF       INT  RCCSD(T)       RHF       INT  RCCSD(T)       RHF       INT
 CPU TIMES  *       722.86    220.91      1.27     27.32    207.38      1.25     26.39    208.97      2.82     25.72
 REAL TIME  *      1106.66 SEC
 DISK USED  *        17.51 GB      
 SF USED    *         2.74 GB      
 GA USED    *         0.00 MB       (max)       0.00 MB       (current)
 **********************************************************************************************************************************
 SETTING CCSD(3)        =      -143.58756118  AU                              

 DO I                   =         4.00000000   
 SETTING Z(4)           =         1.83500000                                  

Geometry recognized as XYZ



 Recomputing integrals since geometry changed


 PROGRAM * SEWARD (Integral evaluation for generally contracted gaussian basis sets)     Author: Roland Lindh, 1990

 Geometry written to block  1 of record 700


 Point group  C2v 



 ATOMIC COORDINATES

 NR  ATOM    CHARGE       X              Y              Z

   1  PD     18.00    0.000000000    0.000000000    0.000000000
   2  O       6.00    0.000000000    0.000000000    3.467647439

 Bond lengths in Bohr (Angstrom)

 1-2  3.467647439
     ( 1.835000000)

 NUCLEAR CHARGE:                   24
 NUMBER OF PRIMITIVE AOS:         370
 NUMBER OF SYMMETRY AOS:          313
 NUMBER OF CONTRACTIONS:          313   ( 138A1  +  71B1  +  71B2  +  33A2  )
 NUMBER OF CORE ORBITALS:           4   (   2A1  +   1B1  +   1B2  +   0A2  )
 NUMBER OF VALENCE ORBITALS:       10   (   5A1  +   2B1  +   2B2  +   1A2  )


 NUCLEAR REPULSION ENERGY   31.14503476

 EXTRA SYMMETRY OF AOS IN SYMMETRY 1:   1 1 1 1 1 1 1 1 1 1   1 1 1 1 1 1 1 1 1 1   1 1 1 1 1 1 1 1 1 1   1 1 1 1 1 1 1 1 1 1
                                        1 1 1 1 1 1 1 1 1 1   1 1 1 2 1 2 1 2 1 2   1 2 1 2 1 2 1 2 1 2   1 2 1 2 1 2 1 2 1 2
                                        1 2 1 2 1 2 1 2 1 2   1 2 1 2 1 3 2 1 3 2   1 3 2 1 1 1 1 1 1 1   1 1 1 1 1 1 1 1 1 1
                                        1 1 1 1 1 1 1 2 1 2   1 2 1 2 1 2 1 2
 EXTRA SYMMETRY OF AOS IN SYMMETRY 2:   1 1 1 1 1 1 1 1 1 1   1 1 1 1 1 1 1 1 1 1   1 1 1 1 1 1 1 1 1 1   1 1 1 1 1 1 1 1 1 1
                                        1 2 1 2 1 2 1 2 1 2   1 2 1 2 1 1 1 1 1 1   1 1 1 1 1 1 1 1 2 1   2
 EXTRA SYMMETRY OF AOS IN SYMMETRY 3:   1 1 1 1 1 1 1 1 1 1   1 1 1 1 1 1 1 1 1 1   1 1 1 1 1 1 1 1 1 1   1 1 1 1 1 1 1 1 1 1
                                        1 2 1 2 1 2 1 2 1 2   1 2 1 2 1 1 1 1 1 1   1 1 1 1 1 1 1 1 2 1   2
 EXTRA SYMMETRY OF AOS IN SYMMETRY 4:   1 1 1 1 1 1 1 1 1 1   1 1 1 1 1 1 1 1 1 1   1 1 2 1 2 1 2 1 1 1   1 1 1

 Eigenvalues of metric

         1 0.859E-06 0.925E-06 0.187E-05 0.900E-05 0.951E-05 0.116E-04 0.257E-04 0.353E-04
         2 0.952E-06 0.981E-06 0.933E-05 0.297E-03 0.471E-03 0.162E-02 0.217E-02 0.298E-02
         3 0.952E-06 0.981E-06 0.933E-05 0.297E-03 0.471E-03 0.162E-02 0.217E-02 0.298E-02
         4 0.951E-05 0.307E-03 0.302E-02 0.107E-01 0.287E-01 0.528E-01 0.865E-01 0.105E+00


 Contracted 2-electron integrals neglected if value below      1.0D-13
 AO integral compression algorithm  1   Integral accuracy      1.0D-13

     958.136 MB (compressed) written to integral file ( 31.8%)

     Node minimum: 17.826 MB, node maximum: 109.314 MB


 NUMBER OF SORTED TWO-ELECTRON INTEGRALS:   13592913.     BUFFER LENGTH:  32768
 NUMBER OF SEGMENTS:   1  SEGMENT LENGTH:   13592913      RECORD LENGTH: 524288

 Memory used in sort:      14.15 MW

 SORT1 READ   375719576. AND WROTE     5623353. INTEGRALS IN     17 RECORDS. CPU TIME:     6.32 SEC, REAL TIME:     7.89 SEC
 SORT2 READ   128932594. AND WROTE   312994044. INTEGRALS IN   2760 RECORDS. CPU TIME:     0.45 SEC, REAL TIME:     0.73 SEC

 Node minimum:    13561530.  Node maximum:    13694643. integrals

 OPERATOR DM      FOR CENTER  0  COORDINATES:    0.000000    0.000000    0.000000


 **********************************************************************************************************************************
 DATASETS  * FILE   NREC   LENGTH (MB)   RECORD NAMES
              1      19       21.20       500      610      700      900      950      970     1000      129      960     1100   
                                          VAR    BASINP    GEOM    SYMINP    ZMAT    AOBASIS   BASIS     P2S    ABASIS      S 
                                         1400     1410     1420     1200     1210     1080     1600     1650     1700   
                                           T        V       ECP      H0       H01     AOSYM     SMH    MOLCAS    OPER   

              2       4        3.66       700     1000      520     2100   
                                         GEOM     BASIS   MCVARS     RHF  

 PROGRAMS   *        TOTAL       INT  RCCSD(T)       RHF       INT  RCCSD(T)       RHF       INT  RCCSD(T)       RHF       INT
 CPU TIMES  *       749.32     26.44    220.91      1.27     27.32    207.38      1.25     26.39    208.97      2.82     25.72
 REAL TIME  *      1135.64 SEC
 DISK USED  *        17.69 GB      
 SF USED    *         2.74 GB      
 GA USED    *         0.00 MB       (max)       0.00 MB       (current)
 **********************************************************************************************************************************


 PROGRAM * RHF-SCF (OPEN SHELL)       Authors: W. Meyer, H.-J. Werner


 NUMBER OF ELECTRONS:      13+   11-    SPACE SYMMETRY=2    SPIN SYMMETRY: Triplet 
 CONVERGENCE THRESHOLDS:    1.00E-05 (Density)    1.00E-07 (Energy)
 MAX. NUMBER OF ITERATIONS:       60
 INTERPOLATION TYPE:            DIIS
 INTERPOLATION STEPS:              2 (START)      1 (STEP)
 LEVEL SHIFTS:                 -0.60 (CLOSED) -0.30 (OPEN) 

 Number of closed-shell orbitals:   11 (   5   2   3   1 )
 Number of open-shell orbitals:      2 (   1   1   0   0 )


 Molecular orbitals read from record     2100.2  Type=RHF/CANONICAL (state 1.2)

 Molecular orbital dump at record        2100.2

 ITERATION    DDIFF          GRAD             ENERGY        2-EL.EN.            DIPOLE MOMENTS         DIIS   ORB.
    1      0.000D+00      0.000D+00      -142.59573231    283.187418    0.00000    0.00000   -2.11332    0    start
    2      0.000D+00      0.220D-02      -142.59629036    283.130179    0.00000    0.00000   -2.11092    1    diag,B
    3      0.553D-03      0.184D-03      -142.59641032    283.143108    0.00000    0.00000   -2.10482    2    diag,B
    4      0.174D-03      0.980D-04      -142.59648052    283.123188    0.00000    0.00000   -2.10074    3    diag,B
    5      0.112D-03      0.598D-04      -142.59651804    283.126920    0.00000    0.00000   -2.09580    4    diag,B
    6      0.839D-04      0.364D-04      -142.59654125    283.121903    0.00000    0.00000   -2.09030    5    diag,B
    7      0.806D-04      0.168D-04      -142.59654657    283.121912    0.00000    0.00000   -2.08757    6    diag,B
    8      0.384D-04      0.780D-05      -142.59654757    283.121300    0.00000    0.00000   -2.08670    7    orth
    9      0.161D-04      0.428D-05      -142.59654789    283.121085    0.00000    0.00000   -2.08640    8    diag,B
   10      0.114D-04      0.254D-05      -142.59654801    283.120641    0.00000    0.00000   -2.08637    9    diag,B
   11      0.547D-05      0.155D-05      -142.59654806    283.120342    0.00000    0.00000   -2.08639    9    diag,B
   12      0.337D-05      0.108D-05      -142.59654809    283.120180    0.00000    0.00000   -2.08644    0    orth

 Final alpha occupancy:   6   3   3   1
 Final beta  occupancy:   5   2   3   1

 !RHF STATE 1.2 Energy               -142.596548086936
 Nuclear energy                        31.14503476
 One-electron energy                 -315.30167266
 Two-electron energy                  141.56008982
 Virial quotient                       -2.36315380
 !RHF STATE 1.2 Dipole moment           0.00000000     0.00000000    -2.08644309
 Dipole moment /Debye                   0.00000000     0.00000000    -5.30286202

 Orbital energies:

         1.1          2.1          3.1          4.1          5.1          6.1          7.1          8.1
     -3.998062    -2.563287    -1.171267    -0.491202    -0.449106    -0.415314    -0.009432     0.033308

         1.2          2.2          3.2          4.2          5.2
     -2.556239    -0.484275    -0.518144     0.022787     0.079581

         1.3          2.3          3.3          4.3          5.3
     -2.555900    -0.521879    -0.383479     0.023760     0.081149

         1.4          2.4          3.4
     -0.449282     0.094786     0.316743

 HOMO      3.3    -0.383479 =     -10.4350eV
 LUMO      7.1    -0.009432 =      -0.2567eV
 LUMO-HOMO         0.374046 =      10.1783eV


 **********************************************************************************************************************************
 DATASETS  * FILE   NREC   LENGTH (MB)   RECORD NAMES
              1      19       21.25       500      610      700      900      950      970     1000      129      960     1100   
                                          VAR    BASINP    GEOM    SYMINP    ZMAT    AOBASIS   BASIS     P2S    ABASIS      S 
                                         1400     1410     1420     1200     1210     1080     1600     1650     1700   
                                           T        V       ECP      H0       H01     AOSYM     SMH    MOLCAS    OPER   

              2       4        3.66       700     1000      520     2100   
                                         GEOM     BASIS   MCVARS     RHF  

 PROGRAMS   *        TOTAL       RHF       INT  RCCSD(T)       RHF       INT  RCCSD(T)       RHF       INT  RCCSD(T)       RHF
 CPU TIMES  *       750.84      1.51     26.44    220.91      1.27     27.32    207.38      1.25     26.39    208.97      2.82
 REAL TIME  *      1137.47 SEC
 DISK USED  *        17.69 GB      
 SF USED    *         2.74 GB      
 GA USED    *         0.00 MB       (max)       0.00 MB       (current)
 **********************************************************************************************************************************
 SETTING SCF(4)         =      -142.59654809  AU                              
 SETTING _CC_NORM_MAX   =         2.00000000                                  


 PROGRAM * CCSD (Restricted open-shell coupled cluster)     Authors: C. Hampel, H.-J. Werner, 1991, M. Deegan, P.J. Knowles, 1992


 Convergence thresholds:  THRVAR = 1.00D-08  THRDEN = 1.00D-06

 CCSD(T)     terms to be evaluated (factor= 1.000)


 Number of closed-shell orbitals:  11 (   5   2   3   1 )
 Number of active  orbitals:        2 (   1   1   0   0 )
 Number of external orbitals:     300 ( 132  68  68  32 )

 Memory could be reduced to 163.04 Mwords without degradation in triples

 Number of N-1 electron functions:              24
 Number of N-2 electron functions:             276
 Number of singly external CSFs:              2280
 Number of doubly external CSFs:           4894910
 Total number of CSFs:                     4897190

 Molecular orbitals read from record     2100.2  Type=RHF/CANONICAL (state 1.2)

 Integral transformation finished. Total CPU:   6.02 sec, npass=  1  Memory used:  15.00 MW

 Starting RMP2 calculation

 Wavefunction is spin-projected

 ITER.      SQ.NORM     CORR.ENERGY   TOTAL ENERGY   ENERGY CHANGE        DEN1      VAR(S)    VAR(P)  DIIS     TIME
   1      1.18532752    -0.96544294  -143.56199103    -0.96544294    -0.00165482  0.13D-04  0.58D-03  1  1     7.16
   2      1.18676081    -0.96720256  -143.56375065    -0.00175962    -0.00000602  0.36D-06  0.32D-05  2  2     8.21
   3      1.18684392    -0.96725392  -143.56380201    -0.00005136    -0.00000005  0.13D-07  0.21D-07  3  3     9.20
   4      1.18684640    -0.96725431  -143.56380240    -0.00000039    -0.00000000  0.33D-09  0.22D-09  4  4    10.22

 Norm of t1 vector:      0.04182491      S-energy:    -0.00559131      T1 diagnostic:  0.00056875
 Norm of t2 vector:      0.43022910      P-energy:    -0.96166300
                                         Alpha-Beta:  -0.67761647
                                         Alpha-Alpha: -0.16117875
                                         Beta-Beta:   -0.12286778

 Spin contamination <S**2-Sz**2-Sz>     0.00000000
  Reference energy                   -142.596548086936
  RHF-RMP2 correlation energy          -0.967254310424
 !RHF-RMP2 energy                    -143.563802397360
 (NB above energy spin projected)

 Starting RCCSD calculation

 ITER.      SQ.NORM     CORR.ENERGY   TOTAL ENERGY   ENERGY CHANGE        DEN1      VAR(S)    VAR(P)  DIIS     TIME
   1      1.16956506    -0.91920300  -143.51575108    -0.91920300    -0.02456647  0.95D-02  0.34D-02  1  1    19.09
   2      1.18689389    -0.93911418  -143.53566227    -0.01991119    -0.00304428  0.76D-03  0.94D-03  2  2    28.33
   3      1.20314882    -0.94226430  -143.53881238    -0.00315011    -0.00117921  0.12D-02  0.11D-03  3  3    36.96
   4      1.21905425    -0.94496119  -143.54150927    -0.00269689    -0.00056024  0.50D-03  0.85D-04  4  4    43.60
   5      1.25245920    -0.94848121  -143.54502929    -0.00352002    -0.00016383  0.13D-03  0.29D-04  5  5    50.05
   6      1.27456392    -0.94994433  -143.54649241    -0.00146312    -0.00004468  0.28D-04  0.11D-04  6  6    56.66
   7      1.28701087    -0.95066562  -143.54721371    -0.00072130    -0.00001106  0.72D-05  0.28D-05  6  1    64.69
   8      1.28949716    -0.95077788  -143.54732596    -0.00011225    -0.00000214  0.12D-05  0.58D-06  6  2    72.18
   9      1.29031415    -0.95079517  -143.54734326    -0.00001730    -0.00000045  0.27D-06  0.12D-06  6  4    79.81
  10      1.29016420    -0.95079169  -143.54733978     0.00000348    -0.00000010  0.78D-07  0.21D-07  6  3    86.79
  11      1.29023314    -0.95079096  -143.54733904     0.00000073    -0.00000005  0.40D-07  0.10D-07  6  4    96.85
  12      1.29024277    -0.95079234  -143.54734043    -0.00000139    -0.00000002  0.17D-07  0.28D-08  6  5   103.82
  13      1.29024646    -0.95079117  -143.54733926     0.00000117    -0.00000001  0.81D-08  0.13D-08  6  6   111.47
  14      1.29027419    -0.95079288  -143.54734097    -0.00000171    -0.00000000  0.29D-08  0.42D-09  6  1   119.35
  15      1.29026214    -0.95079139  -143.54733948     0.00000150    -0.00000000  0.14D-08  0.18D-09  6  2   126.93
  16      1.29025597    -0.95079098  -143.54733906     0.00000041    -0.00000000  0.67D-09  0.98D-10  6  3   133.72

 Norm of t1 vector:      0.29061142      S-energy:    -0.00612724      T1 diagnostic:  0.04115902
                                                                       D1 diagnostic:  0.12144627
 Norm of t2 vector:      0.45365293      P-energy:    -0.94466374
                                         Alpha-Beta:  -0.68869137
                                         Alpha-Alpha: -0.14167735
                                         Beta-Beta:   -0.11429501

 Singles amplitudes (print threshold =  0.500E-01):

         I         SYM. A    A   T(IA) [Alpha-Alpha]

         6         1         2     -0.08018119
 
         I         SYM. A    A   T(IA) [Beta-Beta]

         4         1         1     -0.15598787
         8         2         1      0.17175049

 Doubles amplitudes (print threshold =  0.500E-01):

         I         J         SYM. A    SYM. B    A         B      T(IJ, AB) [Beta-Beta]

         8         4         1         2         1         1      0.08720402
         8         4         2         1         1         1     -0.08720402

 Spin contamination <S**2-Sz**2-Sz>     0.00000000

 Memory could be reduced to 164.20 Mwords without degradation in triples
 

  Correlated core orbitals:             1.1       2.1       1.2       1.3
  Orbital energies:                    -4.0279   -2.6282   -2.5766   -2.5776
 
  RCCSD core-core energy               -0.119105316461
  RCCSD core-valence energy            -0.262976656068
  RCCSD valence correlation energy     -0.568709004943
 

 RESULTS
 =======

  Reference energy                   -142.596548086936
  RCCSD singles energy                 -0.006127237330
  RCCSD pair energy                    -0.944663740141
  RCCSD correlation energy             -0.950790977472
  Triples (T) contribution             -0.041322373706
  Total correlation energy             -0.992113351178
 
  RHF-RCCSD energy                   -143.547339064407
  RHF-RCCSD[T] energy                -143.593676997246
  RHF-RCCSD-T energy                 -143.588429127769
 !RHF-RCCSD(T) energy                -143.588661438113

 Program statistics:

 Available memory in ccsd:               511998418
 Min. memory needed in ccsd:              14064756
 Max. memory used in ccsd:                20157915
 Max. memory used in cckext:              15861012 (16 integral passes)
 Max. memory used in cckint:              15004909 ( 1 integral passes)



 **********************************************************************************************************************************
 DATASETS  * FILE   NREC   LENGTH (MB)   RECORD NAMES
              1      19       21.25       500      610      700      900      950      970     1000      129      960     1100   
                                          VAR    BASINP    GEOM    SYMINP    ZMAT    AOBASIS   BASIS     P2S    ABASIS      S 
                                         1400     1410     1420     1200     1210     1080     1600     1650     1700   
                                           T        V       ECP      H0       H01     AOSYM     SMH    MOLCAS    OPER   

              2       4        3.66       700     1000      520     2100   
                                         GEOM     BASIS   MCVARS     RHF  

 PROGRAMS   *        TOTAL  RCCSD(T)       RHF       INT  RCCSD(T)       RHF       INT  RCCSD(T)       RHF       INT  RCCSD(T)
 CPU TIMES  *       966.49    215.56      1.51     26.44    220.91      1.27     27.32    207.38      1.25     26.39    208.97
 REAL TIME  *      1478.20 SEC
 DISK USED  *        17.69 GB      
 SF USED    *         2.74 GB      
 GA USED    *         0.00 MB       (max)       0.00 MB       (current)
 **********************************************************************************************************************************
 SETTING CCSD(4)        =      -143.58866144  AU                              

 DO I                   =         5.00000000   
 SETTING Z(5)           =         1.78500000                                  

Geometry recognized as XYZ



 Recomputing integrals since geometry changed


 PROGRAM * SEWARD (Integral evaluation for generally contracted gaussian basis sets)     Author: Roland Lindh, 1990

 Geometry written to block  1 of record 700


 Point group  C2v 



 ATOMIC COORDINATES

 NR  ATOM    CHARGE       X              Y              Z

   1  PD     18.00    0.000000000    0.000000000    0.000000000
   2  O       6.00    0.000000000    0.000000000    3.373161132

 Bond lengths in Bohr (Angstrom)

 1-2  3.373161132
     ( 1.785000000)

 NUCLEAR CHARGE:                   24
 NUMBER OF PRIMITIVE AOS:         370
 NUMBER OF SYMMETRY AOS:          313
 NUMBER OF CONTRACTIONS:          313   ( 138A1  +  71B1  +  71B2  +  33A2  )
 NUMBER OF CORE ORBITALS:           4   (   2A1  +   1B1  +   1B2  +   0A2  )
 NUMBER OF VALENCE ORBITALS:       10   (   5A1  +   2B1  +   2B2  +   1A2  )


 NUCLEAR REPULSION ENERGY   32.01744469

 EXTRA SYMMETRY OF AOS IN SYMMETRY 1:   1 1 1 1 1 1 1 1 1 1   1 1 1 1 1 1 1 1 1 1   1 1 1 1 1 1 1 1 1 1   1 1 1 1 1 1 1 1 1 1
                                        1 1 1 1 1 1 1 1 1 1   1 1 1 2 1 2 1 2 1 2   1 2 1 2 1 2 1 2 1 2   1 2 1 2 1 2 1 2 1 2
                                        1 2 1 2 1 2 1 2 1 2   1 2 1 2 1 3 2 1 3 2   1 3 2 1 1 1 1 1 1 1   1 1 1 1 1 1 1 1 1 1
                                        1 1 1 1 1 1 1 2 1 2   1 2 1 2 1 2 1 2
 EXTRA SYMMETRY OF AOS IN SYMMETRY 2:   1 1 1 1 1 1 1 1 1 1   1 1 1 1 1 1 1 1 1 1   1 1 1 1 1 1 1 1 1 1   1 1 1 1 1 1 1 1 1 1
                                        1 2 1 2 1 2 1 2 1 2   1 2 1 2 1 1 1 1 1 1   1 1 1 1 1 1 1 1 2 1   2
 EXTRA SYMMETRY OF AOS IN SYMMETRY 3:   1 1 1 1 1 1 1 1 1 1   1 1 1 1 1 1 1 1 1 1   1 1 1 1 1 1 1 1 1 1   1 1 1 1 1 1 1 1 1 1
                                        1 2 1 2 1 2 1 2 1 2   1 2 1 2 1 1 1 1 1 1   1 1 1 1 1 1 1 1 2 1   2
 EXTRA SYMMETRY OF AOS IN SYMMETRY 4:   1 1 1 1 1 1 1 1 1 1   1 1 1 1 1 1 1 1 1 1   1 1 2 1 2 1 2 1 1 1   1 1 1

 Eigenvalues of metric

         1 0.849E-06 0.916E-06 0.186E-05 0.895E-05 0.951E-05 0.113E-04 0.253E-04 0.348E-04
         2 0.951E-06 0.981E-06 0.932E-05 0.296E-03 0.471E-03 0.162E-02 0.216E-02 0.297E-02
         3 0.951E-06 0.981E-06 0.932E-05 0.296E-03 0.471E-03 0.162E-02 0.216E-02 0.297E-02
         4 0.951E-05 0.307E-03 0.302E-02 0.107E-01 0.287E-01 0.527E-01 0.859E-01 0.104E+00


 Contracted 2-electron integrals neglected if value below      1.0D-13
 AO integral compression algorithm  1   Integral accuracy      1.0D-13

     968.622 MB (compressed) written to integral file ( 32.2%)

     Node minimum: 14.942 MB, node maximum: 109.314 MB


 NUMBER OF SORTED TWO-ELECTRON INTEGRALS:   13592913.     BUFFER LENGTH:  32768
 NUMBER OF SEGMENTS:   1  SEGMENT LENGTH:   13592913      RECORD LENGTH: 524288

 Memory used in sort:      14.15 MW

 SORT1 READ   375719576. AND WROTE     5695590. INTEGRALS IN     17 RECORDS. CPU TIME:     6.52 SEC, REAL TIME:     8.03 SEC
[...]
                                         1400     1410     1420     1200     1210     1080     1600     1650     1700   
                                           T        V       ECP      H0       H01     AOSYM     SMH    MOLCAS    OPER   

              2       4        3.66       700     1000      520     2100   
                                         GEOM     BASIS   MCVARS     RHF  

 PROGRAMS   *        TOTAL  RCCSD(T)       RHF       INT  RCCSD(T)       RHF       INT  RCCSD(T)       RHF       INT  RCCSD(T)
 CPU TIMES  *      2509.54    218.72      2.09     26.23    213.94      1.52     26.49    248.76      1.42     28.41    244.41
 REAL TIME  *      3765.95 SEC
 DISK USED  *        17.97 GB      
 SF USED    *         2.74 GB      
 GA USED    *         0.00 MB       (max)       0.00 MB       (current)
 **********************************************************************************************************************************
 SETTING CCSD(10)       =      -143.53680096  AU                              

 DO I                   =        11.00000000   
 SETTING Z(11)          =         1.48500000                                  

Geometry recognized as XYZ



 Recomputing integrals since geometry changed


 PROGRAM * SEWARD (Integral evaluation for generally contracted gaussian basis sets)     Author: Roland Lindh, 1990

 Geometry written to block  1 of record 700


 Point group  C2v 



 ATOMIC COORDINATES

 NR  ATOM    CHARGE       X              Y              Z

   1  PD     18.00    0.000000000    0.000000000    0.000000000
   2  O       6.00    0.000000000    0.000000000    2.806243295

 Bond lengths in Bohr (Angstrom)

 1-2  2.806243295
     ( 1.485000000)

 NUCLEAR CHARGE:                   24
 NUMBER OF PRIMITIVE AOS:         370
 NUMBER OF SYMMETRY AOS:          313
 NUMBER OF CONTRACTIONS:          313   ( 138A1  +  71B1  +  71B2  +  33A2  )
 NUMBER OF CORE ORBITALS:           4   (   2A1  +   1B1  +   1B2  +   0A2  )
 NUMBER OF VALENCE ORBITALS:       10   (   5A1  +   2B1  +   2B2  +   1A2  )


 NUCLEAR REPULSION ENERGY   38.48561534

 EXTRA SYMMETRY OF AOS IN SYMMETRY 1:   1 1 1 1 1 1 1 1 1 1   1 1 1 1 1 1 1 1 1 1   1 1 1 1 1 1 1 1 1 1   1 1 1 1 1 1 1 1 1 1
                                        1 1 1 1 1 1 1 1 1 1   1 1 1 2 1 2 1 2 1 2   1 2 1 2 1 2 1 2 1 2   1 2 1 2 1 2 1 2 1 2
                                        1 2 1 2 1 2 1 2 1 2   1 2 1 2 1 3 2 1 3 2   1 3 2 1 1 1 1 1 1 1   1 1 1 1 1 1 1 1 1 1
                                        1 1 1 1 1 1 1 2 1 2   1 2 1 2 1 2 1 2
 EXTRA SYMMETRY OF AOS IN SYMMETRY 2:   1 1 1 1 1 1 1 1 1 1   1 1 1 1 1 1 1 1 1 1   1 1 1 1 1 1 1 1 1 1   1 1 1 1 1 1 1 1 1 1
                                        1 2 1 2 1 2 1 2 1 2   1 2 1 2 1 1 1 1 1 1   1 1 1 1 1 1 1 1 2 1   2
 EXTRA SYMMETRY OF AOS IN SYMMETRY 3:   1 1 1 1 1 1 1 1 1 1   1 1 1 1 1 1 1 1 1 1   1 1 1 1 1 1 1 1 1 1   1 1 1 1 1 1 1 1 1 1
                                        1 2 1 2 1 2 1 2 1 2   1 2 1 2 1 1 1 1 1 1   1 1 1 1 1 1 1 1 2 1   2
 EXTRA SYMMETRY OF AOS IN SYMMETRY 4:   1 1 1 1 1 1 1 1 1 1   1 1 1 1 1 1 1 1 1 1   1 1 2 1 2 1 2 1 1 1   1 1 1

 Eigenvalues of metric

         1 0.748E-06 0.903E-06 0.179E-05 0.787E-05 0.919E-05 0.949E-05 0.217E-04 0.316E-04
         2 0.932E-06 0.975E-06 0.927E-05 0.293E-03 0.469E-03 0.159E-02 0.210E-02 0.294E-02
         3 0.932E-06 0.975E-06 0.927E-05 0.293E-03 0.469E-03 0.159E-02 0.210E-02 0.294E-02
         4 0.949E-05 0.307E-03 0.302E-02 0.107E-01 0.286E-01 0.524E-01 0.790E-01 0.899E-01


 Contracted 2-electron integrals neglected if value below      1.0D-13
 AO integral compression algorithm  1   Integral accuracy      1.0D-13

     1043.595 MB (compressed) written to integral file ( 34.7%)

     Node minimum: 24.379 MB, node maximum: 109.314 MB


 NUMBER OF SORTED TWO-ELECTRON INTEGRALS:   13592913.     BUFFER LENGTH:  32768
 NUMBER OF SEGMENTS:   1  SEGMENT LENGTH:   13592913      RECORD LENGTH: 524288

 Memory used in sort:      14.15 MW

 SORT1 READ   375719576. AND WROTE     6114105. INTEGRALS IN     18 RECORDS. CPU TIME:     6.61 SEC, REAL TIME:     8.11 SEC
 SORT2 READ   140699088. AND WROTE   312994044. INTEGRALS IN   3657 RECORDS. CPU TIME:     0.64 SEC, REAL TIME:     0.94 SEC

 Node minimum:    13561530.  Node maximum:    13694643. integrals

 OPERATOR DM      FOR CENTER  0  COORDINATES:    0.000000    0.000000    0.000000


 **********************************************************************************************************************************
 DATASETS  * FILE   NREC   LENGTH (MB)   RECORD NAMES
              1      19       21.20       500      610      700      900      950      970     1000      129      960     1100   
                                          VAR    BASINP    GEOM    SYMINP    ZMAT    AOBASIS   BASIS     P2S    ABASIS      S 
                                         1400     1410     1420     1200     1210     1080     1600     1650     1700   
                                           T        V       ECP      H0       H01     AOSYM     SMH    MOLCAS    OPER   

              2       4        3.66       700     1000      520     2100   
                                         GEOM     BASIS   MCVARS     RHF  

 PROGRAMS   *        TOTAL       INT  RCCSD(T)       RHF       INT  RCCSD(T)       RHF       INT  RCCSD(T)       RHF       INT
 CPU TIMES  *      2536.26     26.71    218.72      2.09     26.23    213.94      1.52     26.49    248.76      1.42     28.41
 REAL TIME  *      3794.94 SEC
 DISK USED  *        18.07 GB      
 SF USED    *         2.74 GB      
 GA USED    *         0.00 MB       (max)       0.00 MB       (current)
 **********************************************************************************************************************************


 PROGRAM * RHF-SCF (OPEN SHELL)       Authors: W. Meyer, H.-J. Werner


 NUMBER OF ELECTRONS:      13+   11-    SPACE SYMMETRY=2    SPIN SYMMETRY: Triplet 
 CONVERGENCE THRESHOLDS:    1.00E-05 (Density)    1.00E-07 (Energy)
 MAX. NUMBER OF ITERATIONS:       60
 INTERPOLATION TYPE:            DIIS
 INTERPOLATION STEPS:              2 (START)      1 (STEP)
 LEVEL SHIFTS:                 -0.60 (CLOSED) -0.30 (OPEN) 

 Number of closed-shell orbitals:   11 (   5   2   3   1 )
 Number of open-shell orbitals:      2 (   1   1   0   0 )


 Molecular orbitals read from record     2100.2  Type=RHF/CANONICAL (state 1.2)

 Molecular orbital dump at record        2100.2

 ITERATION    DDIFF          GRAD             ENERGY        2-EL.EN.            DIPOLE MOMENTS         DIIS   ORB.
    1      0.000D+00      0.000D+00      -142.45817504    295.515909    0.00000    0.00000   -1.34523    0    start
    2      0.000D+00      0.511D-02      -142.46096931    295.395272    0.00000    0.00000   -1.37120    1    diag,B
    3      0.434D-02      0.471D-03      -142.46163781    295.366348    0.00000    0.00000   -1.34379    2    diag,B
    4      0.712D-03      0.255D-03      -142.46204290    295.273699    0.00000    0.00000   -1.34462    3    diag,B
    5      0.239D-03      0.198D-03      -142.46241535    295.219324    0.00000    0.00000   -1.33000    4    diag,B
    6      0.236D-03      0.135D-03      -142.46284470    295.095904    0.00000    0.00000   -1.31086    5    diag,B
    7      0.430D-03      0.924D-04      -142.46304444    295.016326    0.00000    0.00000   -1.29780    6    diag,B
    8      0.282D-03      0.587D-04      -142.46313216    294.947927    0.00000    0.00000   -1.28818    7    orth
    9      0.204D-03      0.321D-04      -142.46315585    294.911259    0.00000    0.00000   -1.28481    8    diag,B
   10      0.136D-03      0.128D-04      -142.46315815    294.903121    0.00000    0.00000   -1.28498    9    diag,B
   11      0.458D-04      0.470D-05      -142.46315839    294.902327    0.00000    0.00000   -1.28544    9    diag,B
   12      0.176D-04      0.221D-05      -142.46315846    294.902736    0.00000    0.00000   -1.28578    9    diag,B
   13      0.621D-05      0.136D-05      -142.46315848    294.902777    0.00000    0.00000   -1.28590    0    orth

 Final alpha occupancy:   6   3   3   1
 Final beta  occupancy:   5   2   3   1

 !RHF STATE 1.2 Energy               -142.463158478414
 Nuclear energy                        38.48561534
 One-electron energy                 -328.40016226
 Two-electron energy                  147.45138844
 Virial quotient                       -2.35208726
 !RHF STATE 1.2 Dipole moment           0.00000000     0.00000000    -1.28590117
 Dipole moment /Debye                   0.00000000     0.00000000    -3.26822069

 Orbital energies:

         1.1          2.1          3.1          4.1          5.1          6.1          7.1          8.1
     -4.052280    -2.648785    -1.277930    -0.608120    -0.480411    -0.305219     0.008876     0.032863

         1.2          2.2          3.2          4.2          5.2
     -2.598190    -0.596747    -0.450193     0.023863     0.078524

         1.3          2.3          3.3          4.3          5.3
     -2.596134    -0.657840    -0.373985     0.025101     0.081739

         1.4          2.4          3.4
     -0.480575     0.096924     0.316585

 HOMO      6.1    -0.305219 =      -8.3054eV
 LUMO      7.1     0.008876 =       0.2415eV
 LUMO-HOMO         0.314095 =       8.5470eV


 **********************************************************************************************************************************
 DATASETS  * FILE   NREC   LENGTH (MB)   RECORD NAMES
              1      19       21.25       500      610      700      900      950      970     1000      129      960     1100   
                                          VAR    BASINP    GEOM    SYMINP    ZMAT    AOBASIS   BASIS     P2S    ABASIS      S 
                                         1400     1410     1420     1200     1210     1080     1600     1650     1700   
                                           T        V       ECP      H0       H01     AOSYM     SMH    MOLCAS    OPER   

              2       4        3.66       700     1000      520     2100   
                                         GEOM     BASIS   MCVARS     RHF  

 PROGRAMS   *        TOTAL       RHF       INT  RCCSD(T)       RHF       INT  RCCSD(T)       RHF       INT  RCCSD(T)       RHF
 CPU TIMES  *      2537.66      1.40     26.71    218.72      2.09     26.23    213.94      1.52     26.49    248.76      1.42
 REAL TIME  *      3796.60 SEC
 DISK USED  *        18.07 GB      
 SF USED    *         2.74 GB      
 GA USED    *         0.00 MB       (max)       0.00 MB       (current)
 **********************************************************************************************************************************
 SETTING SCF(11)        =      -142.46315848  AU                              
 SETTING _CC_NORM_MAX   =         2.00000000                                  


 PROGRAM * CCSD (Restricted open-shell coupled cluster)     Authors: C. Hampel, H.-J. Werner, 1991, M. Deegan, P.J. Knowles, 1992


 Convergence thresholds:  THRVAR = 1.00D-08  THRDEN = 1.00D-06

 CCSD(T)     terms to be evaluated (factor= 1.000)


 Number of closed-shell orbitals:  11 (   5   2   3   1 )
 Number of active  orbitals:        2 (   1   1   0   0 )
 Number of external orbitals:     300 ( 132  68  68  32 )

 Memory could be reduced to 163.04 Mwords without degradation in triples

 Number of N-1 electron functions:              24
 Number of N-2 electron functions:             276
 Number of singly external CSFs:              2280
 Number of doubly external CSFs:           4894910
 Total number of CSFs:                     4897190

 Molecular orbitals read from record     2100.2  Type=RHF/CANONICAL (state 1.2)

 Integral transformation finished. Total CPU:   6.24 sec, npass=  1  Memory used:  15.00 MW

 Starting RMP2 calculation

 Wavefunction is spin-projected

 ITER.      SQ.NORM     CORR.ENERGY   TOTAL ENERGY   ENERGY CHANGE        DEN1      VAR(S)    VAR(P)  DIIS     TIME
   1      1.22261805    -1.05044192  -143.51360039    -1.05044192    -0.00189497  0.37D-04  0.72D-03  1  1     7.45
   2      1.22446662    -1.05245623  -143.51561471    -0.00201432    -0.00000755  0.97D-06  0.41D-05  2  2     8.42
   3      1.22458463    -1.05252045  -143.51567892    -0.00006421    -0.00000005  0.22D-07  0.25D-07  3  3     9.54
   4      1.22458874    -1.05252130  -143.51567978    -0.00000086    -0.00000000  0.27D-09  0.20D-09  4  4    10.56

 Norm of t1 vector:      0.05227670      S-energy:    -0.00550544      T1 diagnostic:  0.00092469
 Norm of t2 vector:      0.47101580      P-energy:    -1.04701586
                                         Alpha-Beta:  -0.72555978
                                         Alpha-Alpha: -0.17293502
                                         Beta-Beta:   -0.14852106

 Spin contamination <S**2-Sz**2-Sz>     0.00000000
  Reference energy                   -142.463158478414
  RHF-RMP2 correlation energy          -1.052521302839
 !RHF-RMP2 energy                    -143.515679781253
 (NB above energy spin projected)

 Starting RCCSD calculation

 ITER.      SQ.NORM     CORR.ENERGY   TOTAL ENERGY   ENERGY CHANGE        DEN1      VAR(S)    VAR(P)  DIIS     TIME
   1      1.18164783    -0.96148792  -143.42464640    -0.96148792    -0.03811919  0.12D-01  0.69D-02  1  1    17.39
   2      1.20332540    -0.99087708  -143.45403556    -0.02938916    -0.00319356  0.95D-03  0.88D-03  2  2    23.81
   3      1.21764182    -0.99343043  -143.45658891    -0.00255335    -0.00091332  0.95D-03  0.58D-04  3  3    30.34
   4      1.23194228    -0.99623038  -143.45938886    -0.00279995    -0.00026672  0.23D-03  0.27D-04  4  4    37.05
   5      1.24713816    -0.99818026  -143.46133874    -0.00194988    -0.00004382  0.36D-04  0.52D-05  5  5    43.93
   6      1.25186004    -0.99858128  -143.46173976    -0.00040102    -0.00000760  0.63D-05  0.12D-05  6  6    51.70
   7      1.25337752    -0.99867214  -143.46183062    -0.00009086    -0.00000164  0.14D-05  0.27D-06  6  1    58.49
   8      1.25356436    -0.99869489  -143.46185336    -0.00002274    -0.00000040  0.49D-06  0.49D-07  6  2    65.06
   9      1.25368171    -0.99868459  -143.46184307     0.00001029    -0.00000014  0.17D-06  0.13D-07  6  3    72.20
  10      1.25382437    -0.99870273  -143.46186121    -0.00001814    -0.00000005  0.48D-07  0.59D-08  6  4    80.23
  11      1.25378280    -0.99868684  -143.46184532     0.00001589    -0.00000001  0.10D-07  0.23D-08  6  6    87.74
  12      1.25382532    -0.99869180  -143.46185027    -0.00000496    -0.00000000  0.11D-08  0.56D-09  6  1    97.31
  13      1.25381400    -0.99868893  -143.46184741     0.00000287    -0.00000000  0.15D-09  0.66D-10  6  5   104.94
  14      1.25381468    -0.99868911  -143.46184759    -0.00000018    -0.00000000  0.58D-10  0.13D-10  6  2   112.41

 Norm of t1 vector:      0.23011495      S-energy:    -0.00520016      T1 diagnostic:  0.03241466
                                                                       D1 diagnostic:  0.10446611
 Norm of t2 vector:      0.44817607      P-energy:    -0.99348895
                                         Alpha-Beta:  -0.71647273
                                         Alpha-Alpha: -0.14695763
                                         Beta-Beta:   -0.13005859

 Singles amplitudes (print threshold =  0.500E-01):

         I         SYM. A    A   T(IA) [Beta-Beta]

         4         1         1     -0.06971132
         8         2         1      0.14769606

 Doubles amplitudes (print threshold =  0.500E-01):

         I         J         SYM. A    SYM. B    A         B      T(IJ, AB) [Beta-Beta]

         8         4         1         2         1         1      0.05653489
         8         4         2         1         1         1     -0.05653489

 Spin contamination <S**2-Sz**2-Sz>     0.00000000

 Memory could be reduced to 164.20 Mwords without degradation in triples
 

  Correlated core orbitals:             1.1       2.1       1.2       1.3
  Orbital energies:                    -4.0776   -2.6894   -2.6253   -2.6082
 
  RCCSD core-core energy               -0.116825381289
  RCCSD core-valence energy            -0.266043704477
  RCCSD valence correlation energy     -0.615820022392
 

 RESULTS
 =======

  Reference energy                   -142.463158478414
  RCCSD singles energy                 -0.005200161976
  RCCSD pair energy                    -0.993488946181
  RCCSD correlation energy             -0.998689108157
  Triples (T) contribution             -0.046060421717
  Total correlation energy             -1.044749529875
 
  RHF-RCCSD energy                   -143.461847586571
  RHF-RCCSD[T] energy                -143.511519216968
  RHF-RCCSD-T energy                 -143.507596458193
 !RHF-RCCSD(T) energy                -143.507908008289

 Program statistics:

 Available memory in ccsd:               511998418
 Min. memory needed in ccsd:              14064756
 Max. memory used in ccsd:                20157915
 Max. memory used in cckext:              15861012 (14 integral passes)
 Max. memory used in cckint:              15004909 ( 1 integral passes)



 **********************************************************************************************************************************
 DATASETS  * FILE   NREC   LENGTH (MB)   RECORD NAMES
              1      19       21.25       500      610      700      900      950      970     1000      129      960     1100   
                                          VAR    BASINP    GEOM    SYMINP    ZMAT    AOBASIS   BASIS     P2S    ABASIS      S 
                                         1400     1410     1420     1200     1210     1080     1600     1650     1700   
                                           T        V       ECP      H0       H01     AOSYM     SMH    MOLCAS    OPER   

              2       4        3.66       700     1000      520     2100   
                                         GEOM     BASIS   MCVARS     RHF  

 PROGRAMS   *        TOTAL  RCCSD(T)       RHF       INT  RCCSD(T)       RHF       INT  RCCSD(T)       RHF       INT  RCCSD(T)
 CPU TIMES  *      2730.91    193.17      1.40     26.71    218.72      2.09     26.23    213.94      1.52     26.49    248.76
 REAL TIME  *      4078.90 SEC
 DISK USED  *        18.07 GB      
 SF USED    *         2.74 GB      
 GA USED    *         0.00 MB       (max)       0.00 MB       (current)
 **********************************************************************************************************************************
 SETTING CCSD(11)       =      -143.50790801  AU                              
 Output type csv         
                                                                                                                                                                                                                                                                

     Z,SCF,CCSD
   1.985,   -142.6041979,   -143.5822547
   1.935,   -142.6034506,   -143.5853306
   1.885,   -142.6010269,   -143.5875612
   1.835,   -142.5965481,   -143.5886614
   1.785,   -142.5895755,   -143.5882394
   1.735,   -142.5796090,   -143.5857600
   1.685,   -142.5660871,   -143.5804764
   1.635,   -142.5483888,   -143.5714181
   1.585,   -142.5258301,   -143.5573578
   1.535,   -142.4976674,   -143.5368010
   1.485,   -142.4631585,   -143.5079080
                                                  

 RCCSD(T)/USERDEF energy=   -143.507908008289

        RCCSD(T)        RHF-SCF         RCCSD(T)        RHF-SCF         RCCSD(T)        RHF-SCF         RCCSD(T)        RHF-SCF 
   -143.50790801   -142.46315848   -143.53680096   -142.49766736   -143.55735781   -142.52583010   -143.57141811   -142.54838877
 **********************************************************************************************************************************
 Molpro calculation terminated
 Variable memory released
