
 Primary working directories    : /global/cscratch1/sd/bkincaid
 Secondary working directories  : /global/cscratch1/sd/bkincaid
 Wavefunction directory         : /global/homes/b/bkincaid/wfu/
 Main file repository           : /global/cscratch1/sd/bkincaid/

 SHA1      : 19cd028119e0e09f93f0674bd8af7968d9b3eff6
 NAME      : 2015.1.36
 ARCHNAME  : linux/x86_64
 FC        : /opt/cray/pe/craype/2.5.14/bin/ftn
 BLASLIB   : -L/opt/intel/compilers_and_libraries_2018.1.163/linux/mkl/lib/intel64 -Wl,-_start-group -lmkl_intel_ilp64 -lmkl_intel_thread -lmkl_core -Wl,-_end-group -liomp5
 id        : lbl

 Nodes     nprocs
 nid01079    23
 Number of processes for MPI-2 version of Molpro:   nprocs(total)=   24   nprocs(compute)=   23   nprocs(helper)=    1

 Using customized tuning parameters: mindgm=7; mindgv=16; mindgc=1; mindgr=1; noblas=0; minvec=7
 default implementation of scratch files=sf  

 ***,Calculation for PdH groundstate
 memory,512,m
 gthresh,twoint=1.0E-12
 gthresh,throvl=1.0E-12
                                                                                 !symmetry,nosym
 
 
 basis={
 Including file /global/u1/b/bkincaid/molpro/Pd/molecules/PdH/tz/ecps/bk16.12/bk16.12
 Including file /global/u1/b/bkincaid/molpro/Pd/molecules/PdH/tz/ecps/bk16.12/Pd-aug-cc-pwCVTZ.basis
 ecp,H,0,1,0
 3
 1, 21.24359508259891,   1.00000000000000
 3, 21.24359508259891,  21.24359508259891
 2, 21.77696655044365, -10.85192405303825
 1
 2, 1.000000000000000,   0.00000000000000
 Including file /global/u1/b/bkincaid/molpro/Pd/molecules/PdH/tz/ecps/bk16.12/H-aug-cc-pVTZ.basis
 }
 
 ne = 19
 
 A1=5
 B1=2
 B2=2
 A2=1
 
 do i=1,11
 z(i) = 1.679 - 0.05*(i-1)
 geometry={
 2
 PdH
 Pd 0.0 0.0 0.0
 H 0.0 0.0 z(i)
 }
 {rhf
 wf,nelec=ne,spin=1,sym=1
 occ,A1,B1,B2,A2
 closed,A1-1,B1,B2,A2
 }
 scf(i)=energy
 _CC_NORM_MAX=2.0
 {rccsd(t);maxit,100;core}
 ccsd(i)=energy
 enddo
 
 table,z,scf,ccsd
 save
 type,csv

 Variables initialized (889), CPU time= 0.01 sec
 Commands  initialized (702), CPU time= 0.01 sec, 572 directives.
 Default parameters read. Elapsed time= 0.18 sec

 Checking input...
 Passed
1


                                         ***  PROGRAM SYSTEM MOLPRO  ***
                                       Copyright, TTI GmbH Stuttgart, 2015
                                    Version 2015.1 linked Dec 29 2018 15:55:43


 **********************************************************************************************************************************
 LABEL *   Calculation for PdH groundstate                                               
  64 bit mpp version                                                                     DATE: 23-Apr-21          TIME: 12:49:28  
 **********************************************************************************************************************************

 SHA1:             19cd028119e0e09f93f0674bd8af7968d9b3eff6
 **********************************************************************************************************************************

 THRESHOLDS:

 ZERO    =  1.00D-12  ONEINT  =  1.00D-12  TWOINT  =  1.00D-12  PREFAC  =  1.00D-14  LOCALI  =  1.00D-09  EORDER  =  1.00D-04
 ENERGY  =  0.00D+00  ETEST   =  0.00D+00  EDENS   =  0.00D+00  THRDEDEF=  1.00D-06  GRADIENT=  1.00D-02  STEP    =  1.00D-03
 ORBITAL =  1.00D-05  CIVEC   =  1.00D-05  COEFF   =  1.00D-04  PRINTCI =  5.00D-02  PUNCHCI =  9.90D+01  OPTGRAD =  3.00D-04
 OPTENERG=  1.00D-06  OPTSTEP =  3.00D-04  THRGRAD =  1.00D-10  COMPRESS=  1.00D-11  VARMIN  =  1.00D-07  VARMAX  =  1.00D-03
 THRDOUB =  0.00D+00  THRDIV  =  1.00D-05  THRRED  =  1.00D-07  THRPSP  =  1.00D+00  THRDC   =  1.00D-10  THRCS   =  1.00D-10
 THRNRM  =  1.00D-08  THREQ   =  0.00D+00  THRDE   =  1.00D+00  THRREF  =  1.00D-05  SPARFAC =  1.00D+00  THRDLP  =  1.00D-07
 THRDIA  =  1.00D-10  THRDLS  =  1.00D-07  THRGPS  =  0.00D+00  THRKEX  =  0.00D+00  THRDIS  =  2.00D-01  THRVAR  =  1.00D-10
 THRLOC  =  1.00D-06  THRGAP  =  1.00D-06  THRLOCT = -1.00D+00  THRGAPT = -1.00D+00  THRORB  =  1.00D-06  THRMLTP =  0.00D+00
 THRCPQCI=  1.00D-10  KEXTA   =  0.00D+00  THRCOARS=  0.00D+00  SYMTOL  =  1.00D-06  GRADTOL =  1.00D-06  THROVL  =  1.00D-08
 THRORTH =  1.00D-08  GRID    =  1.00D-06  GRIDMAX =  1.00D-03  DTMAX   =  0.00D+00  THROCCDE=  1.00D-01  THROCCDE=  1.00D-01



 THRESHOLDS:

 ZERO    =  1.00D-12  ONEINT  =  1.00D-12  TWOINT  =  1.00D-12  PREFAC  =  1.00D-14  LOCALI  =  1.00D-09  EORDER  =  1.00D-04
 ENERGY  =  0.00D+00  ETEST   =  0.00D+00  EDENS   =  0.00D+00  THRDEDEF=  1.00D-06  GRADIENT=  1.00D-02  STEP    =  1.00D-03
 ORBITAL =  1.00D-05  CIVEC   =  1.00D-05  COEFF   =  1.00D-04  PRINTCI =  5.00D-02  PUNCHCI =  9.90D+01  OPTGRAD =  3.00D-04
 OPTENERG=  1.00D-06  OPTSTEP =  3.00D-04  THRGRAD =  1.00D-10  COMPRESS=  1.00D-11  VARMIN  =  1.00D-07  VARMAX  =  1.00D-03
 THRDOUB =  0.00D+00  THRDIV  =  1.00D-05  THRRED  =  1.00D-07  THRPSP  =  1.00D+00  THRDC   =  1.00D-10  THRCS   =  1.00D-10
 THRNRM  =  1.00D-08  THREQ   =  0.00D+00  THRDE   =  1.00D+00  THRREF  =  1.00D-05  SPARFAC =  1.00D+00  THRDLP  =  1.00D-07
 THRDIA  =  1.00D-10  THRDLS  =  1.00D-07  THRGPS  =  0.00D+00  THRKEX  =  0.00D+00  THRDIS  =  2.00D-01  THRVAR  =  1.00D-10
 THRLOC  =  1.00D-06  THRGAP  =  1.00D-06  THRLOCT = -1.00D+00  THRGAPT = -1.00D+00  THRORB  =  1.00D-06  THRMLTP =  0.00D+00
 THRCPQCI=  1.00D-10  KEXTA   =  0.00D+00  THRCOARS=  0.00D+00  SYMTOL  =  1.00D-06  GRADTOL =  1.00D-06  THROVL  =  1.00D-12
 THRORTH =  1.00D-08  GRID    =  1.00D-06  GRIDMAX =  1.00D-03  DTMAX   =  0.00D+00  THROCCDE=  1.00D-01  THROCCDE=  1.00D-01



 Variable memory set to  512000000 words,  buffer space   230000 words

 SETTING BASIS          =    USERDEF
 SETTING NE             =        19.00000000                                  
 SETTING A1             =         5.00000000                                  
 SETTING B1             =         2.00000000                                  
 SETTING B2             =         2.00000000                                  
 SETTING A2             =         1.00000000                                  

 DO I                   =         1.00000000   
 SETTING Z(1)           =         1.67900000                                  

Geometry recognized as XYZ



 Recomputing integrals since basis changed


 Using spherical harmonics



 PROGRAM * SEWARD (Integral evaluation for generally contracted gaussian basis sets)     Author: Roland Lindh, 1990

 Geometry written to block  1 of record 700


 Point group  C2v 



 ATOMIC COORDINATES

 NR  ATOM    CHARGE       X              Y              Z

   1  PD     18.00    0.000000000    0.000000000    0.000000000
   2  H       1.00    0.000000000    0.000000000    3.172850163

 Bond lengths in Bohr (Angstrom)

 1-2  3.172850163
     ( 1.679000000)

 NUCLEAR CHARGE:                   19
 NUMBER OF PRIMITIVE AOS:         312
 NUMBER OF SYMMETRY AOS:          263
 NUMBER OF CONTRACTIONS:          263   ( 116A1  +  59B1  +  59B2  +  29A2  )
 NUMBER OF CORE ORBITALS:           4   (   2A1  +   1B1  +   1B2  +   0A2  )
 NUMBER OF VALENCE ORBITALS:        7   (   4A1  +   1B1  +   1B2  +   1A2  )


 NUCLEAR REPULSION ENERGY    5.67313270

 EXTRA SYMMETRY OF AOS IN SYMMETRY 1:   1 1 1 1 1 1 1 1 1 1   1 1 1 1 1 1 1 1 1 1   1 1 1 1 1 1 1 1 1 1   1 1 1 1 1 1 1 1 1 1
                                        1 1 1 1 1 1 1 1 1 1   1 1 1 2 1 2 1 2 1 2   1 2 1 2 1 2 1 2 1 2   1 2 1 2 1 2 1 2 1 2
                                        1 2 1 2 1 2 1 2 1 2   1 2 1 2 1 3 2 1 3 2   1 3 2 1 1 1 1 1 1 1   1 1 1 2 1 2
 EXTRA SYMMETRY OF AOS IN SYMMETRY 2:   1 1 1 1 1 1 1 1 1 1   1 1 1 1 1 1 1 1 1 1   1 1 1 1 1 1 1 1 1 1   1 1 1 1 1 1 1 1 1 1
                                        1 2 1 2 1 2 1 2 1 2   1 2 1 2 1 1 1 1 1
 EXTRA SYMMETRY OF AOS IN SYMMETRY 3:   1 1 1 1 1 1 1 1 1 1   1 1 1 1 1 1 1 1 1 1   1 1 1 1 1 1 1 1 1 1   1 1 1 1 1 1 1 1 1 1
                                        1 2 1 2 1 2 1 2 1 2   1 2 1 2 1 1 1 1 1
 EXTRA SYMMETRY OF AOS IN SYMMETRY 4:   1 1 1 1 1 1 1 1 1 1   1 1 1 1 1 1 1 1 1 1   1 1 2 1 2 1 2 1 1

 Eigenvalues of metric

         1 0.947E-06 0.194E-05 0.903E-05 0.951E-05 0.282E-04 0.119E-03 0.266E-03 0.274E-03
         2 0.982E-06 0.946E-05 0.304E-03 0.471E-03 0.163E-02 0.301E-02 0.406E-02 0.938E-02
         3 0.982E-06 0.946E-05 0.304E-03 0.471E-03 0.163E-02 0.301E-02 0.406E-02 0.938E-02
         4 0.951E-05 0.307E-03 0.302E-02 0.107E-01 0.287E-01 0.530E-01 0.879E-01 0.105E+00


 Contracted 2-electron integrals neglected if value below      1.0D-13
 AO integral compression algorithm  1   Integral accuracy      1.0D-13

     586.678 MB (compressed) written to integral file ( 42.7%)

     Node minimum: 3.146 MB, node maximum: 63.701 MB


 NUMBER OF SORTED TWO-ELECTRON INTEGRALS:    6738189.     BUFFER LENGTH:  32768
 NUMBER OF SEGMENTS:   1  SEGMENT LENGTH:    6738189      RECORD LENGTH: 524288

 Memory used in sort:       7.30 MW

 SORT1 READ   171363336. AND WROTE     2847112. INTEGRALS IN      9 RECORDS. CPU TIME:     2.93 SEC, REAL TIME:     3.04 SEC
 SORT2 READ    66858833. AND WROTE   156329493. INTEGRALS IN   2254 RECORDS. CPU TIME:     0.29 SEC, REAL TIME:     0.50 SEC

 Node minimum:     6738189.  Node maximum:     6815662. integrals

 OPERATOR DM      FOR CENTER  0  COORDINATES:    0.000000    0.000000    0.000000


 **********************************************************************************************************************************
 DATASETS  * FILE   NREC   LENGTH (MB)   RECORD NAMES
              1      19       20.83       500      610      700      900      950      970     1000      129      960     1100   
                                          VAR    BASINP    GEOM    SYMINP    ZMAT    AOBASIS   BASIS     P2S    ABASIS      S 
                                         1400     1410     1420     1200     1210     1080     1600     1650     1700   
                                           T        V       ECP      H0       H01     AOSYM     SMH    MOLCAS    OPER   

 PROGRAMS   *        TOTAL       INT
 CPU TIMES  *        19.25     18.92
 REAL TIME  *        20.87 SEC
 DISK USED  *         1.44 GB      
 GA USED    *         0.00 MB       (max)       0.00 MB       (current)
 **********************************************************************************************************************************


 PROGRAM * RHF-SCF (OPEN SHELL)       Authors: W. Meyer, H.-J. Werner


 NUMBER OF ELECTRONS:      10+    9-    SPACE SYMMETRY=1    SPIN SYMMETRY: Doublet 
 CONVERGENCE THRESHOLDS:    1.00E-05 (Density)    1.00E-07 (Energy)
 MAX. NUMBER OF ITERATIONS:       60
 INTERPOLATION TYPE:            DIIS
 INTERPOLATION STEPS:              2 (START)      1 (STEP)
 LEVEL SHIFTS:                 -0.60 (CLOSED) -0.30 (OPEN) 

 Number of closed-shell orbitals:    9 (   4   2   2   1 )
 Number of open-shell orbitals:      1 (   1   0   0   0 )


 Orbital guess generated from atomic densities. Full valence occupancy:    6   2   2   1

 Molecular orbital dump at record        2100.2

 ITERATION    DDIFF          GRAD             ENERGY        2-EL.EN.            DIPOLE MOMENTS         DIIS   ORB.
    1      0.000D+00      0.000D+00      -127.00699087    214.517196    0.00000    0.00000   -0.46806    0    start
    2      0.000D+00      0.543D-02      -127.02893115    210.376586    0.00000    0.00000   -0.83948    1    diag,B
    3      0.169D-02      0.346D-02      -127.03477077    211.214610    0.00000    0.00000   -0.87650    2    diag,B
    4      0.717D-03      0.110D-02      -127.03987957    210.962632    0.00000    0.00000   -1.02249    3    diag,B
    5      0.606D-03      0.762D-03      -127.04521557    210.662038    0.00000    0.00000   -1.18084    4    diag,B
    6      0.587D-03      0.579D-03      -127.05016978    210.343583    0.00000    0.00000   -1.32905    5    diag,B
    7      0.560D-03      0.466D-03      -127.05414203    210.044959    0.00000    0.00000   -1.45109    6    fixocc
    8      0.626D-03      0.264D-03      -127.05528973    209.853262    0.00000    0.00000   -1.50281    7    diag,B
    9      0.354D-03      0.158D-03      -127.05558201    209.793880    0.00000    0.00000   -1.53043    8    diag,B
   10      0.251D-03      0.985D-04      -127.05558883    209.769156    0.00000    0.00000   -1.53172    9    orth
   11      0.131D-03      0.622D-04      -127.05560928    209.759734    0.00000    0.00000   -1.53767    9    diag,B
   12      0.560D-04      0.190D-04      -127.05561210    209.759535    0.00000    0.00000   -1.54006    9    diag,B
   13      0.261D-04      0.727D-05      -127.05561275    209.759724    0.00000    0.00000   -1.54119    9    diag,B
   14      0.169D-04      0.384D-05      -127.05561290    209.759555    0.00000    0.00000   -1.54204    9    diag,B
   15      0.713D-05      0.316D-05      -127.05561294    209.759308    0.00000    0.00000   -1.54241    9    diag,B
   16      0.417D-05      0.131D-05      -127.05561295    209.759231    0.00000    0.00000   -1.54240    0    orth

 Final alpha occupancy:   5   2   2   1
 Final beta  occupancy:   4   2   2   1

 !RHF STATE 1.1 Energy               -127.055612948542
 Nuclear energy                         5.67313270
 One-electron energy                 -237.60836092
 Two-electron energy                  104.87961528
 Virial quotient                       -2.63118193
 !RHF STATE 1.1 Dipole moment           0.00000000     0.00000000    -1.54240031
 Dipole moment /Debye                   0.00000000     0.00000000    -3.92013379

 Orbital energies:

         1.1          2.1          3.1          4.1          5.1          6.1          7.1
     -3.972079    -2.525558    -0.431618    -0.404764    -0.409558     0.000724     0.031278

         1.2          2.2          3.2          4.2
     -2.522335    -0.454730     0.023646     0.080608

         1.3          2.3          3.3          4.3
     -2.522335    -0.454730     0.023646     0.080608

         1.4          2.4          3.4
     -0.431618     0.097455     0.324857

 HOMO      5.1    -0.409558 =     -11.1446eV
 LUMO      6.1     0.000724 =       0.0197eV
 LUMO-HOMO         0.410281 =      11.1643eV


 **********************************************************************************************************************************
 DATASETS  * FILE   NREC   LENGTH (MB)   RECORD NAMES
              1      19       20.87       500      610      700      900      950      970     1000      129      960     1100   
                                          VAR    BASINP    GEOM    SYMINP    ZMAT    AOBASIS   BASIS     P2S    ABASIS      S 
                                         1400     1410     1420     1200     1210     1080     1600     1650     1700   
                                           T        V       ECP      H0       H01     AOSYM     SMH    MOLCAS    OPER   

              2       4        3.40       700     1000      520     2100   
                                         GEOM     BASIS   MCVARS     RHF  

 PROGRAMS   *        TOTAL       RHF       INT
 CPU TIMES  *        20.51      1.25     18.92
 REAL TIME  *        22.56 SEC
 DISK USED  *         2.07 GB      
 SF USED    *         0.09 MB      
 GA USED    *         0.00 MB       (max)       0.00 MB       (current)
 **********************************************************************************************************************************
 SETTING SCF(1)         =      -127.05561295  AU                              
 SETTING _CC_NORM_MAX   =         2.00000000                                  


 PROGRAM * CCSD (Restricted open-shell coupled cluster)     Authors: C. Hampel, H.-J. Werner, 1991, M. Deegan, P.J. Knowles, 1992


 Convergence thresholds:  THRVAR = 1.00D-08  THRDEN = 1.00D-06

 CCSD(T)     terms to be evaluated (factor= 1.000)


 Number of closed-shell orbitals:   9 (   4   2   2   1 )
 Number of active  orbitals:        1 (   1   0   0   0 )
 Number of external orbitals:     253 ( 111  57  57  28 )

 Memory could be reduced to 77.45 Mwords without degradation in triples

 Number of N-1 electron functions:              19
 Number of N-2 electron functions:             171
 Number of singly external CSFs:              1520
 Number of doubly external CSFs:           2149669
 Total number of CSFs:                     2151189

 Molecular orbitals read from record     2100.2  Type=RHF/CANONICAL (state 1.1)

 Integral transformation finished. Total CPU:   2.76 sec, npass=  1  Memory used:   6.84 MW

 Starting RMP2 calculation

 Wavefunction is spin-projected

 ITER.      SQ.NORM     CORR.ENERGY   TOTAL ENERGY   ENERGY CHANGE        DEN1      VAR(S)    VAR(P)  DIIS     TIME
   1      1.14954851    -0.78071926  -127.83633221    -0.78071926    -0.00138421  0.15D-04  0.56D-03  1  1     3.27
   2      1.15095774    -0.78219444  -127.83780739    -0.00147518    -0.00000892  0.83D-06  0.55D-05  2  2     4.03
   3      1.15108320    -0.78226234  -127.83787529    -0.00006790    -0.00000009  0.27D-07  0.58D-07  3  3     4.61
   4      1.15108925    -0.78226365  -127.83787660    -0.00000131    -0.00000000  0.55D-09  0.66D-09  4  4     5.52
   5      1.15108941    -0.78226366  -127.83787661    -0.00000001    -0.00000000  0.12D-10  0.90D-11  5  5     6.91

 Norm of t1 vector:      0.02977229      S-energy:    -0.00257602      T1 diagnostic:  0.00076150
 Norm of t2 vector:      0.38756035      P-energy:    -0.77968764
                                         Alpha-Beta:  -0.54408597
                                         Alpha-Alpha: -0.12870768
                                         Beta-Beta:   -0.10689399

 Spin contamination <S**2-Sz**2-Sz>     0.00000000
  Reference energy                   -127.055612948542
  RHF-RMP2 correlation energy          -0.782263663453
 !RHF-RMP2 energy                    -127.837876611995
 (NB above energy spin projected)

 Starting RCCSD calculation

 ITER.      SQ.NORM     CORR.ENERGY   TOTAL ENERGY   ENERGY CHANGE        DEN1      VAR(S)    VAR(P)  DIIS     TIME
   1      1.13286676    -0.73338455  -127.78899750    -0.73338455    -0.01979137  0.61D-02  0.34D-02  1  1    11.16
   2      1.14793762    -0.75006319  -127.80567614    -0.01667864    -0.00206222  0.87D-03  0.61D-03  2  2    14.00
   3      1.16041047    -0.75262654  -127.80823948    -0.00256334    -0.00065952  0.75D-03  0.73D-04  3  3    17.40
   4      1.17359034    -0.75471702  -127.81032997    -0.00209048    -0.00024419  0.26D-03  0.35D-04  4  4    20.38
   5      1.18959795    -0.75627115  -127.81188410    -0.00155413    -0.00006370  0.62D-04  0.12D-04  5  5    27.43
   6      1.19820747    -0.75677831  -127.81239126    -0.00050716    -0.00001589  0.16D-04  0.29D-05  6  6    30.49
   7      1.20365945    -0.75708902  -127.81270197    -0.00031071    -0.00000404  0.37D-05  0.81D-06  6  2    43.66
   8      1.20395356    -0.75706924  -127.81268219     0.00001978    -0.00000071  0.52D-06  0.18D-06  6  1    56.76
   9      1.20471768    -0.75710753  -127.81272048    -0.00003829    -0.00000012  0.93D-07  0.30D-07  6  4    65.96
  10      1.20464744    -0.75710242  -127.81271537     0.00000511    -0.00000002  0.17D-07  0.46D-08  6  3    72.21
  11      1.20467547    -0.75710352  -127.81271647    -0.00000109    -0.00000001  0.55D-08  0.10D-08  6  5    81.57
  12      1.20463911    -0.75709967  -127.81271262     0.00000385    -0.00000000  0.18D-08  0.44D-09  6  4    90.31
  13      1.20463306    -0.75709855  -127.81271150     0.00000111    -0.00000000  0.52D-09  0.10D-09  6  6    92.97
  14      1.20462896    -0.75709802  -127.81271097     0.00000053    -0.00000000  0.21D-09  0.42D-10  6  2    97.36

 Norm of t1 vector:      0.23112165      S-energy:    -0.00265072      T1 diagnostic:  0.03697507
                                                                       D1 diagnostic:  0.11465581
 Norm of t2 vector:      0.38885954      P-energy:    -0.75444730
                                         Alpha-Beta:  -0.54678893
                                         Alpha-Alpha: -0.11266667
                                         Beta-Beta:   -0.09499171

 Singles amplitudes (print threshold =  0.500E-01):

         I         SYM. A    A   T(IA) [Alpha-Alpha]

         5         1         2      0.06829028
         5         1         4      0.06374377
 
         I         SYM. A    A   T(IA) [Beta-Beta]

         4         1         1     -0.16210685

 Spin contamination <S**2-Sz**2-Sz>     0.00000000

 Memory could be reduced to 80.80 Mwords without degradation in triples
 

  Correlated core orbitals:             1.1       2.1       1.2       1.3
  Orbital energies:                    -3.9999   -2.5878   -2.5419   -2.5419
 
  RCCSD core-core energy               -0.119092215015
  RCCSD core-valence energy            -0.265749427009
  RCCSD valence correlation energy     -0.372256382197
 

 RESULTS
 =======

  Reference energy                   -127.055612948542
  RCCSD singles energy                 -0.002650721433
  RCCSD pair energy                    -0.754447302789
  RCCSD correlation energy             -0.757098024221
  Triples (T) contribution             -0.030715528081
  Total correlation energy             -0.787813552302
 
  RHF-RCCSD energy                   -127.812710972763
  RHF-RCCSD[T] energy                -127.845892985301
  RHF-RCCSD-T energy                 -127.843253987359
 !RHF-RCCSD(T) energy                -127.843426500844

 Program statistics:

 Available memory in ccsd:               511999000
 Min. memory needed in ccsd:               6371840
 Max. memory used in ccsd:                 8994336
 Max. memory used in cckext:               7244967 (14 integral passes)
 Max. memory used in cckint:               6842122 ( 1 integral passes)



 **********************************************************************************************************************************
 DATASETS  * FILE   NREC   LENGTH (MB)   RECORD NAMES
              1      19       20.87       500      610      700      900      950      970     1000      129      960     1100   
                                          VAR    BASINP    GEOM    SYMINP    ZMAT    AOBASIS   BASIS     P2S    ABASIS      S 
                                         1400     1410     1420     1200     1210     1080     1600     1650     1700   
                                           T        V       ECP      H0       H01     AOSYM     SMH    MOLCAS    OPER   

              2       4        3.40       700     1000      520     2100   
                                         GEOM     BASIS   MCVARS     RHF  

 PROGRAMS   *        TOTAL  RCCSD(T)       RHF       INT
 CPU TIMES  *       142.58    122.01      1.25     18.92
 REAL TIME  *       195.20 SEC
 DISK USED  *         8.21 GB      
 SF USED    *         1.24 GB      
 GA USED    *         0.00 MB       (max)       0.00 MB       (current)
 **********************************************************************************************************************************
 SETTING CCSD(1)        =      -127.84342650  AU                              

 DO I                   =         2.00000000   
 SETTING Z(2)           =         1.62900000                                  

Geometry recognized as XYZ



 Recomputing integrals since geometry changed


 PROGRAM * SEWARD (Integral evaluation for generally contracted gaussian basis sets)     Author: Roland Lindh, 1990

 Geometry written to block  1 of record 700


 Point group  C2v 



 ATOMIC COORDINATES

 NR  ATOM    CHARGE       X              Y              Z

   1  PD     18.00    0.000000000    0.000000000    0.000000000
   2  H       1.00    0.000000000    0.000000000    3.078363857

 Bond lengths in Bohr (Angstrom)

 1-2  3.078363857
     ( 1.629000000)

 NUCLEAR CHARGE:                   19
 NUMBER OF PRIMITIVE AOS:         312
 NUMBER OF SYMMETRY AOS:          263
 NUMBER OF CONTRACTIONS:          263   ( 116A1  +  59B1  +  59B2  +  29A2  )
 NUMBER OF CORE ORBITALS:           4   (   2A1  +   1B1  +   1B2  +   0A2  )
 NUMBER OF VALENCE ORBITALS:        7   (   4A1  +   1B1  +   1B2  +   1A2  )


 NUCLEAR REPULSION ENERGY    5.84726200

 EXTRA SYMMETRY OF AOS IN SYMMETRY 1:   1 1 1 1 1 1 1 1 1 1   1 1 1 1 1 1 1 1 1 1   1 1 1 1 1 1 1 1 1 1   1 1 1 1 1 1 1 1 1 1
                                        1 1 1 1 1 1 1 1 1 1   1 1 1 2 1 2 1 2 1 2   1 2 1 2 1 2 1 2 1 2   1 2 1 2 1 2 1 2 1 2
                                        1 2 1 2 1 2 1 2 1 2   1 2 1 2 1 3 2 1 3 2   1 3 2 1 1 1 1 1 1 1   1 1 1 2 1 2
 EXTRA SYMMETRY OF AOS IN SYMMETRY 2:   1 1 1 1 1 1 1 1 1 1   1 1 1 1 1 1 1 1 1 1   1 1 1 1 1 1 1 1 1 1   1 1 1 1 1 1 1 1 1 1
                                        1 2 1 2 1 2 1 2 1 2   1 2 1 2 1 1 1 1 1
 EXTRA SYMMETRY OF AOS IN SYMMETRY 3:   1 1 1 1 1 1 1 1 1 1   1 1 1 1 1 1 1 1 1 1   1 1 1 1 1 1 1 1 1 1   1 1 1 1 1 1 1 1 1 1
                                        1 2 1 2 1 2 1 2 1 2   1 2 1 2 1 1 1 1 1
 EXTRA SYMMETRY OF AOS IN SYMMETRY 4:   1 1 1 1 1 1 1 1 1 1   1 1 1 1 1 1 1 1 1 1   1 1 2 1 2 1 2 1 1

 Eigenvalues of metric

         1 0.939E-06 0.194E-05 0.901E-05 0.951E-05 0.280E-04 0.119E-03 0.225E-03 0.272E-03
         2 0.982E-06 0.946E-05 0.304E-03 0.471E-03 0.163E-02 0.301E-02 0.405E-02 0.935E-02
         3 0.982E-06 0.946E-05 0.304E-03 0.471E-03 0.163E-02 0.301E-02 0.405E-02 0.935E-02
         4 0.951E-05 0.307E-03 0.302E-02 0.107E-01 0.287E-01 0.530E-01 0.873E-01 0.105E+00


 Contracted 2-electron integrals neglected if value below      1.0D-13
 AO integral compression algorithm  1   Integral accuracy      1.0D-13

     588.513 MB (compressed) written to integral file ( 42.9%)

     Node minimum: 2.621 MB, node maximum: 63.701 MB


 NUMBER OF SORTED TWO-ELECTRON INTEGRALS:    6738189.     BUFFER LENGTH:  32768
 NUMBER OF SEGMENTS:   1  SEGMENT LENGTH:    6738189      RECORD LENGTH: 524288

 Memory used in sort:       7.30 MW

 SORT1 READ   171363336. AND WROTE     2857933. INTEGRALS IN      9 RECORDS. CPU TIME:     2.59 SEC, REAL TIME:     2.69 SEC
 SORT2 READ    67105292. AND WROTE   156329493. INTEGRALS IN   1748 RECORDS. CPU TIME:     0.14 SEC, REAL TIME:     0.40 SEC

 Node minimum:     6738189.  Node maximum:     6815662. integrals

 OPERATOR DM      FOR CENTER  0  COORDINATES:    0.000000    0.000000    0.000000


 **********************************************************************************************************************************
 DATASETS  * FILE   NREC   LENGTH (MB)   RECORD NAMES
              1      19       20.83       500      610      700      900      950      970     1000      129      960     1100   
                                          VAR    BASINP    GEOM    SYMINP    ZMAT    AOBASIS   BASIS     P2S    ABASIS      S 
                                         1400     1410     1420     1200     1210     1080     1600     1650     1700   
                                           T        V       ECP      H0       H01     AOSYM     SMH    MOLCAS    OPER   

              2       4        3.40       700     1000      520     2100   
                                         GEOM     BASIS   MCVARS     RHF  

 PROGRAMS   *        TOTAL       INT  RCCSD(T)       RHF       INT
 CPU TIMES  *       160.63     18.05    122.01      1.25     18.92
 REAL TIME  *       214.06 SEC
 DISK USED  *         8.38 GB      
 SF USED    *         1.24 GB      
 GA USED    *         0.00 MB       (max)       0.00 MB       (current)
 **********************************************************************************************************************************


 PROGRAM * RHF-SCF (OPEN SHELL)       Authors: W. Meyer, H.-J. Werner


 NUMBER OF ELECTRONS:      10+    9-    SPACE SYMMETRY=1    SPIN SYMMETRY: Doublet 
 CONVERGENCE THRESHOLDS:    1.00E-05 (Density)    1.00E-07 (Energy)
 MAX. NUMBER OF ITERATIONS:       60
 INTERPOLATION TYPE:            DIIS
 INTERPOLATION STEPS:              2 (START)      1 (STEP)
 LEVEL SHIFTS:                 -0.60 (CLOSED) -0.30 (OPEN) 

 Number of closed-shell orbitals:    9 (   4   2   2   1 )
 Number of open-shell orbitals:      1 (   1   0   0   0 )


 Molecular orbitals read from record     2100.2  Type=RHF/CANONICAL (state 1.1)

 Molecular orbital dump at record        2100.2

 ITERATION    DDIFF          GRAD             ENERGY        2-EL.EN.            DIPOLE MOMENTS         DIIS   ORB.
    1      0.000D+00      0.000D+00      -127.05569246    210.102826    0.00000    0.00000   -1.50948    0    start
    2      0.000D+00      0.157D-02      -127.05589919    210.109589    0.00000    0.00000   -1.51195    1    diag,B
    3      0.197D-03      0.134D-03      -127.05595057    210.126373    0.00000    0.00000   -1.50544    2    diag,B
    4      0.538D-04      0.806D-04      -127.05599576    210.140962    0.00000    0.00000   -1.49731    3    diag,B
    5      0.516D-04      0.535D-04      -127.05603229    210.162235    0.00000    0.00000   -1.48608    4    diag,B
    6      0.496D-04      0.355D-04      -127.05605409    210.180626    0.00000    0.00000   -1.47414    5    diag,B
    7      0.520D-04      0.152D-04      -127.05605732    210.189278    0.00000    0.00000   -1.47001    6    diag,B
    8      0.207D-04      0.675D-05      -127.05605761    210.189950    0.00000    0.00000   -1.46954    7    orth
    9      0.760D-05      0.334D-05      -127.05605767    210.190479    0.00000    0.00000   -1.46990    8    diag,B
   10      0.609D-05      0.154D-05      -127.05605768    210.190610    0.00000    0.00000   -1.46996    0    orth

 Final alpha occupancy:   5   2   2   1
 Final beta  occupancy:   4   2   2   1

 !RHF STATE 1.1 Energy               -127.056057682055
 Nuclear energy                         5.84726200
 One-electron energy                 -237.99862444
 Two-electron energy                  105.09530475
 Virial quotient                       -2.63027209
 !RHF STATE 1.1 Dipole moment           0.00000000     0.00000000    -1.46995548
 Dipole moment /Debye                   0.00000000     0.00000000    -3.73600944

 Orbital energies:

         1.1          2.1          3.1          4.1          5.1          6.1          7.1
     -3.968872    -2.523116    -0.428299    -0.416449    -0.395466     0.002227     0.030859

         1.2          2.2          3.2          4.2
     -2.518916    -0.451719     0.023799     0.080854

         1.3          2.3          3.3          4.3
     -2.518916    -0.451719     0.023799     0.080854

         1.4          2.4          3.4
     -0.428299     0.097704     0.325649

 HOMO      5.1    -0.395466 =     -10.7612eV
 LUMO      6.1     0.002227 =       0.0606eV
 LUMO-HOMO         0.397693 =      10.8218eV


 **********************************************************************************************************************************
 DATASETS  * FILE   NREC   LENGTH (MB)   RECORD NAMES
              1      19       20.87       500      610      700      900      950      970     1000      129      960     1100   
                                          VAR    BASINP    GEOM    SYMINP    ZMAT    AOBASIS   BASIS     P2S    ABASIS      S 
                                         1400     1410     1420     1200     1210     1080     1600     1650     1700   
                                           T        V       ECP      H0       H01     AOSYM     SMH    MOLCAS    OPER   

              2       4        3.40       700     1000      520     2100   
                                         GEOM     BASIS   MCVARS     RHF  

 PROGRAMS   *        TOTAL       RHF       INT  RCCSD(T)       RHF       INT
 CPU TIMES  *       161.19      0.56     18.05    122.01      1.25     18.92
 REAL TIME  *       214.76 SEC
 DISK USED  *         8.38 GB      
 SF USED    *         1.24 GB      
 GA USED    *         0.00 MB       (max)       0.00 MB       (current)
 **********************************************************************************************************************************
 SETTING SCF(2)         =      -127.05605768  AU                              
 SETTING _CC_NORM_MAX   =         2.00000000                                  


 PROGRAM * CCSD (Restricted open-shell coupled cluster)     Authors: C. Hampel, H.-J. Werner, 1991, M. Deegan, P.J. Knowles, 1992


 Convergence thresholds:  THRVAR = 1.00D-08  THRDEN = 1.00D-06

 CCSD(T)     terms to be evaluated (factor= 1.000)


 Number of closed-shell orbitals:   9 (   4   2   2   1 )
 Number of active  orbitals:        1 (   1   0   0   0 )
 Number of external orbitals:     253 ( 111  57  57  28 )

 Memory could be reduced to 80.26 Mwords without degradation in triples

 Number of N-1 electron functions:              19
 Number of N-2 electron functions:             171
 Number of singly external CSFs:              1520
 Number of doubly external CSFs:           2149669
 Total number of CSFs:                     2151189

 Molecular orbitals read from record     2100.2  Type=RHF/CANONICAL (state 1.1)

 Integral transformation finished. Total CPU:   2.74 sec, npass=  1  Memory used:   6.84 MW

 Starting RMP2 calculation

 Wavefunction is spin-projected

 ITER.      SQ.NORM     CORR.ENERGY   TOTAL ENERGY   ENERGY CHANGE        DEN1      VAR(S)    VAR(P)  DIIS     TIME
   1      1.15098932    -0.78513626  -127.84119394    -0.78513626    -0.00138240  0.16D-04  0.56D-03  1  1     3.15
   2      1.15238232    -0.78660875  -127.84266643    -0.00147249    -0.00000843  0.85D-06  0.51D-05  2  2     3.44
   3      1.15250185    -0.78667411  -127.84273180    -0.00006536    -0.00000009  0.27D-07  0.51D-07  3  3     3.75
   4      1.15250740    -0.78667530  -127.84273298    -0.00000119    -0.00000000  0.53D-09  0.56D-09  4  4     4.20
   5      1.15250756    -0.78667532  -127.84273300    -0.00000001    -0.00000000  0.11D-10  0.73D-11  5  5     4.84

 Norm of t1 vector:      0.03012082      S-energy:    -0.00251441      T1 diagnostic:  0.00077206
 Norm of t2 vector:      0.38935882      P-energy:    -0.78416091
                                         Alpha-Beta:  -0.54661158
                                         Alpha-Alpha: -0.12951456
                                         Beta-Beta:   -0.10803478

 Spin contamination <S**2-Sz**2-Sz>     0.00000000
  Reference energy                   -127.056057682055
  RHF-RMP2 correlation energy          -0.786675316966
 !RHF-RMP2 energy                    -127.842732999021
 (NB above energy spin projected)

 Starting RCCSD calculation

 ITER.      SQ.NORM     CORR.ENERGY   TOTAL ENERGY   ENERGY CHANGE        DEN1      VAR(S)    VAR(P)  DIIS     TIME
   1      1.13288607    -0.73586849  -127.79192617    -0.73586849    -0.02010187  0.60D-02  0.34D-02  1  1     7.35
   2      1.14770390    -0.75277259  -127.80883027    -0.01690410    -0.00200159  0.83D-03  0.58D-03  2  2    10.11
   3      1.15943471    -0.75519461  -127.81125230    -0.00242202    -0.00062376  0.70D-03  0.67D-04  3  3    12.91
   4      1.17181363    -0.75719452  -127.81325220    -0.00199991    -0.00022452  0.24D-03  0.31D-04  4  4    16.12
   5      1.18630043    -0.75863389  -127.81469157    -0.00143936    -0.00005786  0.57D-04  0.10D-04  5  5    18.94
   6      1.19371026    -0.75907203  -127.81512971    -0.00043814    -0.00001467  0.15D-04  0.25D-05  6  6    22.57
   7      1.19866237    -0.75936183  -127.81541951    -0.00028980    -0.00000363  0.35D-05  0.66D-06  6  2    25.05
   8      1.19898876    -0.75934474  -127.81540243     0.00001709    -0.00000062  0.46D-06  0.15D-06  6  1    27.68
   9      1.19959624    -0.75937406  -127.81543174    -0.00002931    -0.00000011  0.95D-07  0.25D-07  6  4    30.43
  10      1.19956767    -0.75937064  -127.81542832     0.00000342    -0.00000003  0.23D-07  0.47D-08  6  3    37.00
  11      1.19958667    -0.75937084  -127.81542852    -0.00000020    -0.00000001  0.89D-08  0.13D-08  6  5    39.73
  12      1.19955669    -0.75936647  -127.81542415     0.00000437    -0.00000000  0.23D-08  0.35D-09  6  1    43.02
  13      1.19955180    -0.75936560  -127.81542328     0.00000087    -0.00000000  0.69D-09  0.16D-09  6  6    45.48

 Norm of t1 vector:      0.22262593      S-energy:    -0.00255082      T1 diagnostic:  0.03561533
                                                                       D1 diagnostic:  0.10704872
 Norm of t2 vector:      0.38728477      P-energy:    -0.75681478
                                         Alpha-Beta:  -0.54810597
                                         Alpha-Alpha: -0.11309967
                                         Beta-Beta:   -0.09560914

 Singles amplitudes (print threshold =  0.500E-01):

         I         SYM. A    A   T(IA) [Alpha-Alpha]

         5         1         2      0.06799270
         5         1         4      0.06631056
 
         I         SYM. A    A   T(IA) [Beta-Beta]

         4         1         1     -0.15133415

 Spin contamination <S**2-Sz**2-Sz>     0.00000000

 Memory could be reduced to 80.80 Mwords without degradation in triples
 

  Correlated core orbitals:             1.1       2.1       1.2       1.3
  Orbital energies:                    -3.9956   -2.5826   -2.5376   -2.5376
 
  RCCSD core-core energy               -0.118929764022
  RCCSD core-valence energy            -0.265927531382
  RCCSD valence correlation energy     -0.374508304479
 

 RESULTS
 =======

  Reference energy                   -127.056057682055
  RCCSD singles energy                 -0.002550823594
  RCCSD pair energy                    -0.756814776289
  RCCSD correlation energy             -0.759365599883
  Triples (T) contribution             -0.030952142005
  Total correlation energy             -0.790317741888
 
  RHF-RCCSD energy                   -127.815423281938
  RHF-RCCSD[T] energy                -127.848732946903
  RHF-RCCSD-T energy                 -127.846201961500
 !RHF-RCCSD(T) energy                -127.846375423943

 Program statistics:

 Available memory in ccsd:               511999000
 Min. memory needed in ccsd:               6371840
 Max. memory used in ccsd:                 8994336
 Max. memory used in cckext:               7244967 (13 integral passes)
 Max. memory used in cckint:               6842122 ( 1 integral passes)



 **********************************************************************************************************************************
 DATASETS  * FILE   NREC   LENGTH (MB)   RECORD NAMES
              1      19       20.87       500      610      700      900      950      970     1000      129      960     1100   
                                          VAR    BASINP    GEOM    SYMINP    ZMAT    AOBASIS   BASIS     P2S    ABASIS      S 
                                         1400     1410     1420     1200     1210     1080     1600     1650     1700   
                                           T        V       ECP      H0       H01     AOSYM     SMH    MOLCAS    OPER   

              2       4        3.40       700     1000      520     2100   
                                         GEOM     BASIS   MCVARS     RHF  

 PROGRAMS   *        TOTAL  RCCSD(T)       RHF       INT  RCCSD(T)       RHF       INT
 CPU TIMES  *       231.40     70.16      0.56     18.05    122.01      1.25     18.92
 REAL TIME  *       347.98 SEC
 DISK USED  *         8.38 GB      
 SF USED    *         1.24 GB      
 GA USED    *         0.00 MB       (max)       0.00 MB       (current)
 **********************************************************************************************************************************
 SETTING CCSD(2)        =      -127.84637542  AU                              

 DO I                   =         3.00000000   
 SETTING Z(3)           =         1.57900000                                  

Geometry recognized as XYZ



 Recomputing integrals since geometry changed


 PROGRAM * SEWARD (Integral evaluation for generally contracted gaussian basis sets)     Author: Roland Lindh, 1990

 Geometry written to block  1 of record 700


 Point group  C2v 



 ATOMIC COORDINATES

 NR  ATOM    CHARGE       X              Y              Z

   1  PD     18.00    0.000000000    0.000000000    0.000000000
   2  H       1.00    0.000000000    0.000000000    2.983877551

 Bond lengths in Bohr (Angstrom)

 1-2  2.983877551
     ( 1.579000000)

 NUCLEAR CHARGE:                   19
 NUMBER OF PRIMITIVE AOS:         312
 NUMBER OF SYMMETRY AOS:          263
 NUMBER OF CONTRACTIONS:          263   ( 116A1  +  59B1  +  59B2  +  29A2  )
 NUMBER OF CORE ORBITALS:           4   (   2A1  +   1B1  +   1B2  +   0A2  )
 NUMBER OF VALENCE ORBITALS:        7   (   4A1  +   1B1  +   1B2  +   1A2  )


 NUCLEAR REPULSION ENERGY    6.03241912

 EXTRA SYMMETRY OF AOS IN SYMMETRY 1:   1 1 1 1 1 1 1 1 1 1   1 1 1 1 1 1 1 1 1 1   1 1 1 1 1 1 1 1 1 1   1 1 1 1 1 1 1 1 1 1
                                        1 1 1 1 1 1 1 1 1 1   1 1 1 2 1 2 1 2 1 2   1 2 1 2 1 2 1 2 1 2   1 2 1 2 1 2 1 2 1 2
                                        1 2 1 2 1 2 1 2 1 2   1 2 1 2 1 3 2 1 3 2   1 3 2 1 1 1 1 1 1 1   1 1 1 2 1 2
 EXTRA SYMMETRY OF AOS IN SYMMETRY 2:   1 1 1 1 1 1 1 1 1 1   1 1 1 1 1 1 1 1 1 1   1 1 1 1 1 1 1 1 1 1   1 1 1 1 1 1 1 1 1 1
                                        1 2 1 2 1 2 1 2 1 2   1 2 1 2 1 1 1 1 1
 EXTRA SYMMETRY OF AOS IN SYMMETRY 3:   1 1 1 1 1 1 1 1 1 1   1 1 1 1 1 1 1 1 1 1   1 1 1 1 1 1 1 1 1 1   1 1 1 1 1 1 1 1 1 1
                                        1 2 1 2 1 2 1 2 1 2   1 2 1 2 1 1 1 1 1
 EXTRA SYMMETRY OF AOS IN SYMMETRY 4:   1 1 1 1 1 1 1 1 1 1   1 1 1 1 1 1 1 1 1 1   1 1 2 1 2 1 2 1 1

 Eigenvalues of metric

         1 0.930E-06 0.193E-05 0.898E-05 0.951E-05 0.277E-04 0.119E-03 0.188E-03 0.272E-03
         2 0.982E-06 0.947E-05 0.304E-03 0.471E-03 0.163E-02 0.301E-02 0.405E-02 0.931E-02
         3 0.982E-06 0.947E-05 0.304E-03 0.471E-03 0.163E-02 0.301E-02 0.405E-02 0.931E-02
         4 0.951E-05 0.307E-03 0.302E-02 0.107E-01 0.287E-01 0.530E-01 0.866E-01 0.105E+00


 Contracted 2-electron integrals neglected if value below      1.0D-13
 AO integral compression algorithm  1   Integral accuracy      1.0D-13

     592.183 MB (compressed) written to integral file ( 43.1%)

     Node minimum: 2.621 MB, node maximum: 63.701 MB


 NUMBER OF SORTED TWO-ELECTRON INTEGRALS:    6738189.     BUFFER LENGTH:  32768
 NUMBER OF SEGMENTS:   1  SEGMENT LENGTH:    6738189      RECORD LENGTH: 524288

 Memory used in sort:       7.30 MW

 SORT1 READ   171363336. AND WROTE     2867609. INTEGRALS IN      9 RECORDS. CPU TIME:     2.56 SEC, REAL TIME:     2.72 SEC
 SORT2 READ    67333241. AND WROTE   156329493. INTEGRALS IN   1817 RECORDS. CPU TIME:     0.26 SEC, REAL TIME:     0.42 SEC

 Node minimum:     6738189.  Node maximum:     6815662. integrals

 OPERATOR DM      FOR CENTER  0  COORDINATES:    0.000000    0.000000    0.000000


 **********************************************************************************************************************************
 DATASETS  * FILE   NREC   LENGTH (MB)   RECORD NAMES
              1      19       20.83       500      610      700      900      950      970     1000      129      960     1100   
                                          VAR    BASINP    GEOM    SYMINP    ZMAT    AOBASIS   BASIS     P2S    ABASIS      S 
                                         1400     1410     1420     1200     1210     1080     1600     1650     1700   
                                           T        V       ECP      H0       H01     AOSYM     SMH    MOLCAS    OPER   

              2       4        3.40       700     1000      520     2100   
                                         GEOM     BASIS   MCVARS     RHF  

 PROGRAMS   *        TOTAL       INT  RCCSD(T)       RHF       INT  RCCSD(T)       RHF       INT
 CPU TIMES  *       249.39     17.98     70.16      0.56     18.05    122.01      1.25     18.92
 REAL TIME  *       366.78 SEC
 DISK USED  *         8.54 GB      
 SF USED    *         1.24 GB      
 GA USED    *         0.00 MB       (max)       0.00 MB       (current)
 **********************************************************************************************************************************


 PROGRAM * RHF-SCF (OPEN SHELL)       Authors: W. Meyer, H.-J. Werner


 NUMBER OF ELECTRONS:      10+    9-    SPACE SYMMETRY=1    SPIN SYMMETRY: Doublet 
 CONVERGENCE THRESHOLDS:    1.00E-05 (Density)    1.00E-07 (Energy)
 MAX. NUMBER OF ITERATIONS:       60
 INTERPOLATION TYPE:            DIIS
 INTERPOLATION STEPS:              2 (START)      1 (STEP)
 LEVEL SHIFTS:                 -0.60 (CLOSED) -0.30 (OPEN) 

 Number of closed-shell orbitals:    9 (   4   2   2   1 )
 Number of open-shell orbitals:      1 (   1   0   0   0 )


 Molecular orbitals read from record     2100.2  Type=RHF/CANONICAL (state 1.1)

 Molecular orbital dump at record        2100.2

 ITERATION    DDIFF          GRAD             ENERGY        2-EL.EN.            DIPOLE MOMENTS         DIIS   ORB.
    1      0.000D+00      0.000D+00      -127.05517082    210.542363    0.00000    0.00000   -1.43832    0    start
    2      0.000D+00      0.172D-02      -127.05541487    210.552140    0.00000    0.00000   -1.44173    1    diag,B
    3      0.243D-03      0.145D-03      -127.05547502    210.568444    0.00000    0.00000   -1.43464    2    diag,B
    4      0.544D-04      0.872D-04      -127.05552784    210.583481    0.00000    0.00000   -1.42613    3    diag,B
    5      0.556D-04      0.590D-04      -127.05557312    210.604867    0.00000    0.00000   -1.41371    4    diag,B
    6      0.584D-04      0.395D-04      -127.05560171    210.625643    0.00000    0.00000   -1.39954    5    diag,B
    7      0.654D-04      0.164D-04      -127.05560552    210.634743    0.00000    0.00000   -1.39474    6    diag,B
    8      0.235D-04      0.704D-05      -127.05560583    210.635368    0.00000    0.00000   -1.39415    7    orth
    9      0.776D-05      0.349D-05      -127.05560589    210.635984    0.00000    0.00000   -1.39450    8    diag,B
   10      0.639D-05      0.163D-05      -127.05560590    210.636094    0.00000    0.00000   -1.39456    0    orth

 Final alpha occupancy:   5   2   2   1
 Final beta  occupancy:   4   2   2   1

 !RHF STATE 1.1 Energy               -127.055605898882
 Nuclear energy                         6.03241912
 One-electron energy                 -238.40607216
 Two-electron energy                  105.31804713
 Virial quotient                       -2.62917666
 !RHF STATE 1.1 Dipole moment           0.00000000     0.00000000    -1.39455599
 Dipole moment /Debye                   0.00000000     0.00000000    -3.54437561

 Orbital energies:

         1.1          2.1          3.1          4.1          5.1          6.1          7.1
     -3.965749    -2.520998    -0.429165    -0.425020    -0.380449     0.003744     0.030418

         1.2          2.2          3.2          4.2
     -2.515547    -0.448873     0.023930     0.081019

         1.3          2.3          3.3          4.3
     -2.515547    -0.448873     0.023930     0.081019

         1.4          2.4          3.4
     -0.425020     0.097948     0.326405

 HOMO      5.1    -0.380449 =     -10.3525eV
 LUMO      6.1     0.003744 =       0.1019eV
 LUMO-HOMO         0.384193 =      10.4544eV


 **********************************************************************************************************************************
 DATASETS  * FILE   NREC   LENGTH (MB)   RECORD NAMES
              1      19       20.87       500      610      700      900      950      970     1000      129      960     1100   
                                          VAR    BASINP    GEOM    SYMINP    ZMAT    AOBASIS   BASIS     P2S    ABASIS      S 
                                         1400     1410     1420     1200     1210     1080     1600     1650     1700   
                                           T        V       ECP      H0       H01     AOSYM     SMH    MOLCAS    OPER   

              2       4        3.40       700     1000      520     2100   
                                         GEOM     BASIS   MCVARS     RHF  

 PROGRAMS   *        TOTAL       RHF       INT  RCCSD(T)       RHF       INT  RCCSD(T)       RHF       INT
 CPU TIMES  *       249.96      0.57     17.98     70.16      0.56     18.05    122.01      1.25     18.92
 REAL TIME  *       367.42 SEC
 DISK USED  *         8.54 GB      
 SF USED    *         1.24 GB      
 GA USED    *         0.00 MB       (max)       0.00 MB       (current)
 **********************************************************************************************************************************
 SETTING SCF(3)         =      -127.05560590  AU                              
 SETTING _CC_NORM_MAX   =         2.00000000                                  


 PROGRAM * CCSD (Restricted open-shell coupled cluster)     Authors: C. Hampel, H.-J. Werner, 1991, M. Deegan, P.J. Knowles, 1992


 Convergence thresholds:  THRVAR = 1.00D-08  THRDEN = 1.00D-06

 CCSD(T)     terms to be evaluated (factor= 1.000)


 Number of closed-shell orbitals:   9 (   4   2   2   1 )
 Number of active  orbitals:        1 (   1   0   0   0 )
 Number of external orbitals:     253 ( 111  57  57  28 )

 Memory could be reduced to 80.26 Mwords without degradation in triples

 Number of N-1 electron functions:              19
 Number of N-2 electron functions:             171
 Number of singly external CSFs:              1520
 Number of doubly external CSFs:           2149669
 Total number of CSFs:                     2151189

 Molecular orbitals read from record     2100.2  Type=RHF/CANONICAL (state 1.1)

 Integral transformation finished. Total CPU:   2.50 sec, npass=  1  Memory used:   6.84 MW

 Starting RMP2 calculation

 Wavefunction is spin-projected

 ITER.      SQ.NORM     CORR.ENERGY   TOTAL ENERGY   ENERGY CHANGE        DEN1      VAR(S)    VAR(P)  DIIS     TIME
   1      1.15254746    -0.78985265  -127.84545855    -0.78985265    -0.00137823  0.16D-04  0.55D-03  1  1     3.95
   2      1.15392066    -0.79131955  -127.84692545    -0.00146690    -0.00000784  0.85D-06  0.47D-05  2  2     5.10
   3      1.15403356    -0.79138191  -127.84698781    -0.00006236    -0.00000008  0.27D-07  0.43D-07  3  3     6.37
   4      1.15403855    -0.79138295  -127.84698885    -0.00000104    -0.00000000  0.51D-09  0.45D-09  4  4     7.32
   5      1.15403869    -0.79138297  -127.84698887    -0.00000002    -0.00000000  0.10D-10  0.55D-11  5  5     8.45

 Norm of t1 vector:      0.03032948      S-energy:    -0.00243139      T1 diagnostic:  0.00077074
 Norm of t2 vector:      0.39130399      P-energy:    -0.78895158
                                         Alpha-Beta:  -0.54932285
                                         Alpha-Alpha: -0.13038425
                                         Beta-Beta:   -0.10924447

 Spin contamination <S**2-Sz**2-Sz>     0.00000000
  Reference energy                   -127.055605898881
  RHF-RMP2 correlation energy          -0.791382971391
 !RHF-RMP2 energy                    -127.846988870273
 (NB above energy spin projected)

 Starting RCCSD calculation

 ITER.      SQ.NORM     CORR.ENERGY   TOTAL ENERGY   ENERGY CHANGE        DEN1      VAR(S)    VAR(P)  DIIS     TIME
   1      1.13286181    -0.73850769  -127.79411358    -0.73850769    -0.02038606  0.58D-02  0.35D-02  1  1    11.41
   2      1.14736046    -0.75562837  -127.81123426    -0.01712068    -0.00192389  0.79D-03  0.55D-03  2  2    14.21
   3      1.15818861    -0.75788043  -127.81348633    -0.00225207    -0.00057945  0.64D-03  0.61D-04  3  3    16.40
   4      1.16947496    -0.75975060  -127.81535650    -0.00187017    -0.00020297  0.22D-03  0.27D-04  4  4    19.24
   5      1.18224237    -0.76105780  -127.81666370    -0.00130720    -0.00005173  0.52D-04  0.87D-05  5  5    22.38
   6      1.18851953    -0.76142984  -127.81703574    -0.00037204    -0.00001330  0.14D-04  0.21D-05  6  6    25.14
   7      1.19289242    -0.76169089  -127.81729679    -0.00026105    -0.00000321  0.32D-05  0.52D-06  6  2    28.21
   8      1.19325250    -0.76167743  -127.81728332     0.00001346    -0.00000055  0.42D-06  0.13D-06  6  1    30.62
   9      1.19372851    -0.76169893  -127.81730483    -0.00002150    -0.00000011  0.10D-06  0.22D-07  6  4    34.51
  10      1.19373465    -0.76169705  -127.81730295     0.00000188    -0.00000003  0.28D-07  0.48D-08  6  3    37.40
  11      1.19375009    -0.76169683  -127.81730273     0.00000022    -0.00000001  0.11D-07  0.16D-08  6  5    40.68
  12      1.19373302    -0.76169343  -127.81729932     0.00000340    -0.00000000  0.35D-08  0.72D-09  6  4    43.28
  13      1.19372983    -0.76169223  -127.81729813     0.00000120    -0.00000000  0.63D-09  0.16D-09  6  6    45.52
  14      1.19372798    -0.76169196  -127.81729786     0.00000027    -0.00000000  0.17D-09  0.45D-10  6  2    48.30

 Norm of t1 vector:      0.21218371      S-energy:    -0.00242829      T1 diagnostic:  0.03394352
                                                                       D1 diagnostic:  0.09782343
 Norm of t2 vector:      0.38562424      P-energy:    -0.75926366
                                         Alpha-Beta:  -0.54947068
                                         Alpha-Alpha: -0.11355778
                                         Beta-Beta:   -0.09623520

 Singles amplitudes (print threshold =  0.500E-01):

         I         SYM. A    A   T(IA) [Alpha-Alpha]

         5         1         2      0.06676180
         5         1         4      0.06823979
         5         1         8      0.05124040
 
         I         SYM. A    A   T(IA) [Beta-Beta]

         3         1         1     -0.13826739

 Spin contamination <S**2-Sz**2-Sz>     0.00000000

 Memory could be reduced to 80.80 Mwords without degradation in triples
 

  Correlated core orbitals:             1.1       2.1       1.2       1.3
  Orbital energies:                    -3.9912   -2.5773   -2.5332   -2.5332
 
  RCCSD core-core energy               -0.118741074298
  RCCSD core-valence energy            -0.266098591843
  RCCSD valence correlation energy     -0.376852291853
 

 RESULTS
 =======

  Reference energy                   -127.055605898881
  RCCSD singles energy                 -0.002428294060
  RCCSD pair energy                    -0.759263663933
  RCCSD correlation energy             -0.761691957993
  Triples (T) contribution             -0.031203141043
  Total correlation energy             -0.792895099037
 
  RHF-RCCSD energy                   -127.817297856875
  RHF-RCCSD[T] energy                -127.850731098333
  RHF-RCCSD-T energy                 -127.848325514955
 !RHF-RCCSD(T) energy                -127.848500997918

 Program statistics:

 Available memory in ccsd:               511999000
 Min. memory needed in ccsd:               6371840
 Max. memory used in ccsd:                 8994336
 Max. memory used in cckext:               7244967 (14 integral passes)
 Max. memory used in cckint:               6842122 ( 1 integral passes)



 **********************************************************************************************************************************
 DATASETS  * FILE   NREC   LENGTH (MB)   RECORD NAMES
              1      19       20.87       500      610      700      900      950      970     1000      129      960     1100   
                                          VAR    BASINP    GEOM    SYMINP    ZMAT    AOBASIS   BASIS     P2S    ABASIS      S 
                                         1400     1410     1420     1200     1210     1080     1600     1650     1700   
                                           T        V       ECP      H0       H01     AOSYM     SMH    MOLCAS    OPER   

              2       4        3.40       700     1000      520     2100   
                                         GEOM     BASIS   MCVARS     RHF  

 PROGRAMS   *        TOTAL  RCCSD(T)       RHF       INT  RCCSD(T)       RHF       INT  RCCSD(T)       RHF       INT
 CPU TIMES  *       323.68     73.72      0.57     17.98     70.16      0.56     18.05    122.01      1.25     18.92
 REAL TIME  *       482.64 SEC
 DISK USED  *         8.54 GB      
 SF USED    *         1.24 GB      
 GA USED    *         0.00 MB       (max)       0.00 MB       (current)
 **********************************************************************************************************************************
 SETTING CCSD(3)        =      -127.84850100  AU                              

 DO I                   =         4.00000000   
 SETTING Z(4)           =         1.52900000                                  

Geometry recognized as XYZ



 Recomputing integrals since geometry changed


 PROGRAM * SEWARD (Integral evaluation for generally contracted gaussian basis sets)     Author: Roland Lindh, 1990

 Geometry written to block  1 of record 700


 Point group  C2v 



 ATOMIC COORDINATES

 NR  ATOM    CHARGE       X              Y              Z

   1  PD     18.00    0.000000000    0.000000000    0.000000000
   2  H       1.00    0.000000000    0.000000000    2.889391244

 Bond lengths in Bohr (Angstrom)

 1-2  2.889391244
     ( 1.529000000)

 NUCLEAR CHARGE:                   19
 NUMBER OF PRIMITIVE AOS:         312
 NUMBER OF SYMMETRY AOS:          263
 NUMBER OF CONTRACTIONS:          263   ( 116A1  +  59B1  +  59B2  +  29A2  )
 NUMBER OF CORE ORBITALS:           4   (   2A1  +   1B1  +   1B2  +   0A2  )
 NUMBER OF VALENCE ORBITALS:        7   (   4A1  +   1B1  +   1B2  +   1A2  )


 NUCLEAR REPULSION ENERGY    6.22968594

 EXTRA SYMMETRY OF AOS IN SYMMETRY 1:   1 1 1 1 1 1 1 1 1 1   1 1 1 1 1 1 1 1 1 1   1 1 1 1 1 1 1 1 1 1   1 1 1 1 1 1 1 1 1 1
                                        1 1 1 1 1 1 1 1 1 1   1 1 1 2 1 2 1 2 1 2   1 2 1 2 1 2 1 2 1 2   1 2 1 2 1 2 1 2 1 2
                                        1 2 1 2 1 2 1 2 1 2   1 2 1 2 1 3 2 1 3 2   1 3 2 1 1 1 1 1 1 1   1 1 1 2 1 2
 EXTRA SYMMETRY OF AOS IN SYMMETRY 2:   1 1 1 1 1 1 1 1 1 1   1 1 1 1 1 1 1 1 1 1   1 1 1 1 1 1 1 1 1 1   1 1 1 1 1 1 1 1 1 1
                                        1 2 1 2 1 2 1 2 1 2   1 2 1 2 1 1 1 1 1
 EXTRA SYMMETRY OF AOS IN SYMMETRY 3:   1 1 1 1 1 1 1 1 1 1   1 1 1 1 1 1 1 1 1 1   1 1 1 1 1 1 1 1 1 1   1 1 1 1 1 1 1 1 1 1
                                        1 2 1 2 1 2 1 2 1 2   1 2 1 2 1 1 1 1 1
 EXTRA SYMMETRY OF AOS IN SYMMETRY 4:   1 1 1 1 1 1 1 1 1 1   1 1 1 1 1 1 1 1 1 1   1 1 2 1 2 1 2 1 1

 Eigenvalues of metric

         1 0.922E-06 0.192E-05 0.893E-05 0.951E-05 0.273E-04 0.118E-03 0.157E-03 0.271E-03
         2 0.982E-06 0.947E-05 0.304E-03 0.471E-03 0.163E-02 0.301E-02 0.405E-02 0.926E-02
         3 0.982E-06 0.947E-05 0.304E-03 0.471E-03 0.163E-02 0.301E-02 0.405E-02 0.926E-02
         4 0.951E-05 0.307E-03 0.302E-02 0.107E-01 0.287E-01 0.529E-01 0.858E-01 0.105E+00


 Contracted 2-electron integrals neglected if value below      1.0D-13
 AO integral compression algorithm  1   Integral accuracy      1.0D-13

     593.756 MB (compressed) written to integral file ( 43.4%)

     Node minimum: 2.621 MB, node maximum: 63.701 MB


 NUMBER OF SORTED TWO-ELECTRON INTEGRALS:    6738189.     BUFFER LENGTH:  32768
 NUMBER OF SEGMENTS:   1  SEGMENT LENGTH:    6738189      RECORD LENGTH: 524288

 Memory used in sort:       7.30 MW

 SORT1 READ   171363336. AND WROTE     2877006. INTEGRALS IN      9 RECORDS. CPU TIME:     2.57 SEC, REAL TIME:     2.68 SEC
 SORT2 READ    67544471. AND WROTE   156329493. INTEGRALS IN   5589 RECORDS. CPU TIME:     0.22 SEC, REAL TIME:     0.47 SEC

 Node minimum:     6738189.  Node maximum:     6815662. integrals

 OPERATOR DM      FOR CENTER  0  COORDINATES:    0.000000    0.000000    0.000000


 **********************************************************************************************************************************
 DATASETS  * FILE   NREC   LENGTH (MB)   RECORD NAMES
              1      19       20.83       500      610      700      900      950      970     1000      129      960     1100   
                                          VAR    BASINP    GEOM    SYMINP    ZMAT    AOBASIS   BASIS     P2S    ABASIS      S 
                                         1400     1410     1420     1200     1210     1080     1600     1650     1700   
                                           T        V       ECP      H0       H01     AOSYM     SMH    MOLCAS    OPER   

              2       4        3.40       700     1000      520     2100   
                                         GEOM     BASIS   MCVARS     RHF  

 PROGRAMS   *        TOTAL       INT  RCCSD(T)       RHF       INT  RCCSD(T)       RHF       INT  RCCSD(T)       RHF       INT
 CPU TIMES  *       342.35     18.67     73.72      0.57     17.98     70.16      0.56     18.05    122.01      1.25     18.92
 REAL TIME  *       502.07 SEC
 DISK USED  *         8.61 GB      
 SF USED    *         1.24 GB      
 GA USED    *         0.00 MB       (max)       0.00 MB       (current)
 **********************************************************************************************************************************


 PROGRAM * RHF-SCF (OPEN SHELL)       Authors: W. Meyer, H.-J. Werner


 NUMBER OF ELECTRONS:      10+    9-    SPACE SYMMETRY=1    SPIN SYMMETRY: Doublet 
 CONVERGENCE THRESHOLDS:    1.00E-05 (Density)    1.00E-07 (Energy)
 MAX. NUMBER OF ITERATIONS:       60
 INTERPOLATION TYPE:            DIIS
 INTERPOLATION STEPS:              2 (START)      1 (STEP)
 LEVEL SHIFTS:                 -0.60 (CLOSED) -0.30 (OPEN) 

 Number of closed-shell orbitals:    9 (   4   2   2   1 )
 Number of open-shell orbitals:      1 (   1   0   0   0 )


 Molecular orbitals read from record     2100.2  Type=RHF/CANONICAL (state 1.1)

 Molecular orbital dump at record        2100.2

 ITERATION    DDIFF          GRAD             ENERGY        2-EL.EN.            DIPOLE MOMENTS         DIIS   ORB.
    1      0.000D+00      0.000D+00      -127.05355755    210.996291    0.00000    0.00000   -1.36431    0    start
    2      0.000D+00      0.189D-02      -127.05384655    211.009399    0.00000    0.00000   -1.36865    1    diag,B
    3      0.304D-03      0.157D-03      -127.05391703    211.024784    0.00000    0.00000   -1.36085    2    diag,B
    4      0.569D-04      0.944D-04      -127.05397839    211.039972    0.00000    0.00000   -1.35190    3    diag,B
    5      0.605D-04      0.648D-04      -127.05403333    211.060593    0.00000    0.00000   -1.33832    4    diag,B
    6      0.686D-04      0.437D-04      -127.05406977    211.082807    0.00000    0.00000   -1.32190    5    diag,B
    7      0.812D-04      0.178D-04      -127.05407430    211.091929    0.00000    0.00000   -1.31634    6    diag,B
    8      0.272D-04      0.722D-05      -127.05407462    211.092492    0.00000    0.00000   -1.31566    7    orth
    9      0.824D-05      0.357D-05      -127.05407468    211.093186    0.00000    0.00000   -1.31598    8    diag,B
   10      0.629D-05      0.170D-05      -127.05407469    211.093253    0.00000    0.00000   -1.31604    0    orth

 Final alpha occupancy:   5   2   2   1
 Final beta  occupancy:   4   2   2   1

 !RHF STATE 1.1 Energy               -127.054074689208
 Nuclear energy                         6.22968594
 One-electron energy                 -238.83038717
 Two-electron energy                  105.54662655
 Virial quotient                       -2.62786026
 !RHF STATE 1.1 Dipole moment           0.00000000     0.00000000    -1.31604001
 Dipole moment /Debye                   0.00000000     0.00000000    -3.34482096

 Orbital energies:

         1.1          2.1          3.1          4.1          5.1          6.1          7.1
     -3.962825    -2.519372    -0.442968    -0.421869    -0.364789     0.005267     0.029951

         1.2          2.2          3.2          4.2
     -2.512331    -0.446312     0.024034     0.081080

         1.3          2.3          3.3          4.3
     -2.512331    -0.446312     0.024034     0.081080

         1.4          2.4          3.4
     -0.421869     0.098185     0.327107

 HOMO      5.1    -0.364789 =      -9.9264eV
 LUMO      6.1     0.005267 =       0.1433eV
 LUMO-HOMO         0.370057 =      10.0698eV


 **********************************************************************************************************************************
 DATASETS  * FILE   NREC   LENGTH (MB)   RECORD NAMES
              1      19       20.87       500      610      700      900      950      970     1000      129      960     1100   
                                          VAR    BASINP    GEOM    SYMINP    ZMAT    AOBASIS   BASIS     P2S    ABASIS      S 
                                         1400     1410     1420     1200     1210     1080     1600     1650     1700   
                                           T        V       ECP      H0       H01     AOSYM     SMH    MOLCAS    OPER   

              2       4        3.40       700     1000      520     2100   
                                         GEOM     BASIS   MCVARS     RHF  

 PROGRAMS   *        TOTAL       RHF       INT  RCCSD(T)       RHF       INT  RCCSD(T)       RHF       INT  RCCSD(T)       RHF
 CPU TIMES  *       342.92      0.57     18.67     73.72      0.57     17.98     70.16      0.56     18.05    122.01      1.25
 REAL TIME  *       502.74 SEC
 DISK USED  *         8.61 GB      
 SF USED    *         1.24 GB      
 GA USED    *         0.00 MB       (max)       0.00 MB       (current)
 **********************************************************************************************************************************
 SETTING SCF(4)         =      -127.05407469  AU                              
 SETTING _CC_NORM_MAX   =         2.00000000                                  


 PROGRAM * CCSD (Restricted open-shell coupled cluster)     Authors: C. Hampel, H.-J. Werner, 1991, M. Deegan, P.J. Knowles, 1992


 Convergence thresholds:  THRVAR = 1.00D-08  THRDEN = 1.00D-06

 CCSD(T)     terms to be evaluated (factor= 1.000)


 Number of closed-shell orbitals:   9 (   4   2   2   1 )
 Number of active  orbitals:        1 (   1   0   0   0 )
 Number of external orbitals:     253 ( 111  57  57  28 )

 Memory could be reduced to 80.26 Mwords without degradation in triples

 Number of N-1 electron functions:              19
 Number of N-2 electron functions:             171
 Number of singly external CSFs:              1520
 Number of doubly external CSFs:           2149669
 Total number of CSFs:                     2151189

 Molecular orbitals read from record     2100.2  Type=RHF/CANONICAL (state 1.1)

 Integral transformation finished. Total CPU:   2.20 sec, npass=  1  Memory used:   6.84 MW

 Starting RMP2 calculation

 Wavefunction is spin-projected

 ITER.      SQ.NORM     CORR.ENERGY   TOTAL ENERGY   ENERGY CHANGE        DEN1      VAR(S)    VAR(P)  DIIS     TIME
   1      1.15416993    -0.79477307  -127.84884776    -0.79477307    -0.00137146  0.16D-04  0.54D-03  1  1     3.62
   2      1.15551893    -0.79623121  -127.85030590    -0.00145814    -0.00000716  0.81D-06  0.42D-05  2  2     4.92
   3      1.15562437    -0.79629005  -127.85036474    -0.00005884    -0.00000007  0.26D-07  0.35D-07  3  3     5.91
   4      1.15562873    -0.79629094  -127.85036562    -0.00000088    -0.00000000  0.47D-09  0.34D-09  4  4     6.76

 Norm of t1 vector:      0.03031692      S-energy:    -0.00232171      T1 diagnostic:  0.00075074
 Norm of t2 vector:      0.39333143      P-energy:    -0.79396923
                                         Alpha-Beta:  -0.55216353
                                         Alpha-Alpha: -0.13130985
                                         Beta-Beta:   -0.11049585

 Spin contamination <S**2-Sz**2-Sz>     0.00000000
  Reference energy                   -127.054074689207
  RHF-RMP2 correlation energy          -0.796290935746
 !RHF-RMP2 energy                    -127.850365624953
 (NB above energy spin projected)

 Starting RCCSD calculation

 ITER.      SQ.NORM     CORR.ENERGY   TOTAL ENERGY   ENERGY CHANGE        DEN1      VAR(S)    VAR(P)  DIIS     TIME
   1      1.13275650    -0.74125151  -127.79532620    -0.74125151    -0.02061987  0.55D-02  0.36D-02  1  1     9.92
   2      1.14685008    -0.75856313  -127.81263782    -0.01731162    -0.00182777  0.72D-03  0.52D-03  2  2    12.86
   3      1.15661161    -0.76061615  -127.81469084    -0.00205302    -0.00052677  0.58D-03  0.55D-04  3  3    15.86
   4      1.16653305    -0.76231740  -127.81639209    -0.00170124    -0.00018003  0.19D-03  0.23D-04  4  4    17.99
   5      1.17745203    -0.76347876  -127.81755345    -0.00116137    -0.00004534  0.47D-04  0.71D-05  5  5    21.17
   6      1.18269574    -0.76379051  -127.81786520    -0.00031175    -0.00001176  0.13D-04  0.17D-05  6  6    23.84
   7      1.18642790    -0.76401608  -127.81809077    -0.00022557    -0.00000277  0.29D-05  0.41D-06  6  2    26.58
   8      1.18681071    -0.76400641  -127.81808110     0.00000967    -0.00000048  0.38D-06  0.10D-06  6  1    30.41
   9      1.18717979    -0.76402144  -127.81809613    -0.00001503    -0.00000011  0.98D-07  0.19D-07  6  4    32.97
  10      1.18721197    -0.76402098  -127.81809567     0.00000046    -0.00000003  0.29D-07  0.44D-08  6  3    36.02
  11      1.18722536    -0.76402060  -127.81809529     0.00000038    -0.00000001  0.11D-07  0.16D-08  6  5    40.20
  12      1.18721547    -0.76401734  -127.81809203     0.00000326    -0.00000000  0.19D-08  0.36D-09  6  1    42.77
  13      1.18721476    -0.76401674  -127.81809142     0.00000060    -0.00000000  0.40D-09  0.12D-09  6  6    45.41

 Norm of t1 vector:      0.19960819      S-energy:    -0.00227835      T1 diagnostic:  0.03192694
                                                                       D1 diagnostic:  0.08706262
 Norm of t2 vector:      0.38388974      P-energy:    -0.76173838
                                         Alpha-Beta:  -0.55084171
                                         Alpha-Alpha: -0.11403906
                                         Beta-Beta:   -0.09685761

 Singles amplitudes (print threshold =  0.500E-01):

         I         SYM. A    A   T(IA) [Alpha-Alpha]

         5         1         2      0.06428461
         5         1         4      0.06914301
         5         1         8      0.05198835
 
         I         SYM. A    A   T(IA) [Beta-Beta]

         3         1         1     -0.12302152

 Spin contamination <S**2-Sz**2-Sz>     0.00000000

 Memory could be reduced to 80.80 Mwords without degradation in triples
 

  Correlated core orbitals:             1.1       2.1       1.2       1.3
  Orbital energies:                    -3.9869   -2.5720   -2.5288   -2.5288
 
  RCCSD core-core energy               -0.118523254545
  RCCSD core-valence energy            -0.266256540620
  RCCSD valence correlation energy     -0.379236940441
 

 RESULTS
 =======

  Reference energy                   -127.054074689207
  RCCSD singles energy                 -0.002278352968
  RCCSD pair energy                    -0.761738382637
  RCCSD correlation energy             -0.764016735606
  Triples (T) contribution             -0.031459766477
  Total correlation energy             -0.795476502082
 
  RHF-RCCSD energy                   -127.818091424813
  RHF-RCCSD[T] energy                -127.851634514091
  RHF-RCCSD-T energy                 -127.849373767490
 !RHF-RCCSD(T) energy                -127.849551191290

 Program statistics:

 Available memory in ccsd:               511999000
 Min. memory needed in ccsd:               6371840
 Max. memory used in ccsd:                 8994336
 Max. memory used in cckext:               7244967 (13 integral passes)
 Max. memory used in cckint:               6842122 ( 1 integral passes)



 **********************************************************************************************************************************
 DATASETS  * FILE   NREC   LENGTH (MB)   RECORD NAMES
              1      19       20.87       500      610      700      900      950      970     1000      129      960     1100   
                                          VAR    BASINP    GEOM    SYMINP    ZMAT    AOBASIS   BASIS     P2S    ABASIS      S 
                                         1400     1410     1420     1200     1210     1080     1600     1650     1700   
                                           T        V       ECP      H0       H01     AOSYM     SMH    MOLCAS    OPER   

              2       4        3.40       700     1000      520     2100   
                                         GEOM     BASIS   MCVARS     RHF  

 PROGRAMS   *        TOTAL  RCCSD(T)       RHF       INT  RCCSD(T)       RHF       INT  RCCSD(T)       RHF       INT  RCCSD(T)
 CPU TIMES  *       413.06     70.09      0.57     18.67     73.72      0.57     17.98     70.16      0.56     18.05    122.01
 REAL TIME  *       611.55 SEC
 DISK USED  *         8.61 GB      
 SF USED    *         1.24 GB      
 GA USED    *         0.00 MB       (max)       0.00 MB       (current)
 **********************************************************************************************************************************
 SETTING CCSD(4)        =      -127.84955119  AU                              

 DO I                   =         5.00000000   
 SETTING Z(5)           =         1.47900000                                  

Geometry recognized as XYZ



 Recomputing integrals since geometry changed


 PROGRAM * SEWARD (Integral evaluation for generally contracted gaussian basis sets)     Author: Roland Lindh, 1990

 Geometry written to block  1 of record 700


 Point group  C2v 



 ATOMIC COORDINATES

 NR  ATOM    CHARGE       X              Y              Z

   1  PD     18.00    0.000000000    0.000000000    0.000000000
   2  H       1.00    0.000000000    0.000000000    2.794904938

 Bond lengths in Bohr (Angstrom)

 1-2  2.794904938
     ( 1.479000000)

 NUCLEAR CHARGE:                   19
 NUMBER OF PRIMITIVE AOS:         312
 NUMBER OF SYMMETRY AOS:          263
 NUMBER OF CONTRACTIONS:          263   ( 116A1  +  59B1  +  59B2  +  29A2  )
 NUMBER OF CORE ORBITALS:           4   (   2A1  +   1B1  +   1B2  +   0A2  )
 NUMBER OF VALENCE ORBITALS:        7   (   4A1  +   1B1  +   1B2  +   1A2  )


 NUCLEAR REPULSION ENERGY    6.44029060

 EXTRA SYMMETRY OF AOS IN SYMMETRY 1:   1 1 1 1 1 1 1 1 1 1   1 1 1 1 1 1 1 1 1 1   1 1 1 1 1 1 1 1 1 1   1 1 1 1 1 1 1 1 1 1
                                        1 1 1 1 1 1 1 1 1 1   1 1 1 2 1 2 1 2 1 2   1 2 1 2 1 2 1 2 1 2   1 2 1 2 1 2 1 2 1 2
                                        1 2 1 2 1 2 1 2 1 2   1 2 1 2 1 3 2 1 3 2   1 3 2 1 1 1 1 1 1 1   1 1 1 2 1 2
 EXTRA SYMMETRY OF AOS IN SYMMETRY 2:   1 1 1 1 1 1 1 1 1 1   1 1 1 1 1 1 1 1 1 1   1 1 1 1 1 1 1 1 1 1   1 1 1 1 1 1 1 1 1 1
                                        1 2 1 2 1 2 1 2 1 2   1 2 1 2 1 1 1 1 1
 EXTRA SYMMETRY OF AOS IN SYMMETRY 3:   1 1 1 1 1 1 1 1 1 1   1 1 1 1 1 1 1 1 1 1   1 1 1 1 1 1 1 1 1 1   1 1 1 1 1 1 1 1 1 1
                                        1 2 1 2 1 2 1 2 1 2   1 2 1 2 1 1 1 1 1
 EXTRA SYMMETRY OF AOS IN SYMMETRY 4:   1 1 1 1 1 1 1 1 1 1   1 1 1 1 1 1 1 1 1 1   1 1 2 1 2 1 2 1 1

 Eigenvalues of metric

         1 0.916E-06 0.191E-05 0.889E-05 0.951E-05 0.268E-04 0.117E-03 0.131E-03 0.270E-03
         2 0.982E-06 0.946E-05 0.304E-03 0.471E-03 0.163E-02 0.300E-02 0.405E-02 0.919E-02
         3 0.982E-06 0.946E-05 0.304E-03 0.471E-03 0.163E-02 0.300E-02 0.405E-02 0.919E-02
         4 0.951E-05 0.307E-03 0.302E-02 0.107E-01 0.286E-01 0.528E-01 0.849E-01 0.105E+00


 Contracted 2-electron integrals neglected if value below      1.0D-13
 AO integral compression algorithm  1   Integral accuracy      1.0D-13

     597.164 MB (compressed) written to integral file ( 43.5%)

     Node minimum: 2.621 MB, node maximum: 63.701 MB


 NUMBER OF SORTED TWO-ELECTRON INTEGRALS:    6738189.     BUFFER LENGTH:  32768
 NUMBER OF SEGMENTS:   1  SEGMENT LENGTH:    6738189      RECORD LENGTH: 524288

 Memory used in sort:       7.30 MW

 SORT1 READ   171363336. AND WROTE     2886144. INTEGRALS IN      9 RECORDS. CPU TIME:     2.57 SEC, REAL TIME:     2.66 SEC
 SORT2 READ    67747600. AND WROTE   156329493. INTEGRALS IN   1817 RECORDS. CPU TIME:     0.17 SEC, REAL TIME:     0.39 SEC

 Node minimum:     6738189.  Node maximum:     6815662. integrals

 OPERATOR DM      FOR CENTER  0  COORDINATES:    0.000000    0.000000    0.000000


 **********************************************************************************************************************************
 DATASETS  * FILE   NREC   LENGTH (MB)   RECORD NAMES
              1      19       20.83       500      610      700      900      950      970     1000      129      960     1100   
                                          VAR    BASINP    GEOM    SYMINP    ZMAT    AOBASIS   BASIS     P2S    ABASIS      S 
                                         1400     1410     1420     1200     1210     1080     1600     1650     1700   
                                           T        V       ECP      H0       H01     AOSYM     SMH    MOLCAS    OPER   

              2       4        3.40       700     1000      520     2100   
                                         GEOM     BASIS   MCVARS     RHF  

 PROGRAMS   *        TOTAL       INT  RCCSD(T)       RHF       INT  RCCSD(T)       RHF       INT  RCCSD(T)       RHF       INT
 CPU TIMES  *       431.84     18.78     70.09      0.57     18.67     73.72      0.57     17.98     70.16      0.56     18.05
 REAL TIME  *       631.19 SEC
 DISK USED  *         8.62 GB      
 SF USED    *         1.24 GB      
 GA USED    *         0.00 MB       (max)       0.00 MB       (current)
 **********************************************************************************************************************************


 PROGRAM * RHF-SCF (OPEN SHELL)       Authors: W. Meyer, H.-J. Werner


 NUMBER OF ELECTRONS:      10+    9-    SPACE SYMMETRY=1    SPIN SYMMETRY: Doublet 
 CONVERGENCE THRESHOLDS:    1.00E-05 (Density)    1.00E-07 (Energy)
 MAX. NUMBER OF ITERATIONS:       60
 INTERPOLATION TYPE:            DIIS
 INTERPOLATION STEPS:              2 (START)      1 (STEP)
 LEVEL SHIFTS:                 -0.60 (CLOSED) -0.30 (OPEN) 

 Number of closed-shell orbitals:    9 (   4   2   2   1 )
 Number of open-shell orbitals:      1 (   1   0   0   0 )


 Molecular orbitals read from record     2100.2  Type=RHF/CANONICAL (state 1.1)

 Molecular orbital dump at record        2100.2

 ITERATION    DDIFF          GRAD             ENERGY        2-EL.EN.            DIPOLE MOMENTS         DIIS   ORB.
    1      0.000D+00      0.000D+00      -127.05062405    211.462468    0.00000    0.00000   -1.28727    0    start
    2      0.000D+00      0.207D-02      -127.05096720    211.478956    0.00000    0.00000   -1.29259    1    diag,B
    3      0.378D-03      0.171D-03      -127.05104948    211.492932    0.00000    0.00000   -1.28403    2    diag,B
    4      0.619D-04      0.102D-03      -127.05111982    211.507763    0.00000    0.00000   -1.27470    3    diag,B
    5      0.666D-04      0.706D-04      -127.05118437    211.526531    0.00000    0.00000   -1.26019    4    diag,B
    6      0.799D-04      0.477D-04      -127.05122853    211.548299    0.00000    0.00000   -1.24202    5    diag,B
    7      0.977D-04      0.193D-04      -127.05123390    211.556787    0.00000    0.00000   -1.23569    6    diag,B
    8      0.314D-04      0.730D-05      -127.05123423    211.557317    0.00000    0.00000   -1.23493    7    orth
    9      0.945D-05      0.343D-05      -127.05123428    211.558009    0.00000    0.00000   -1.23521    8    diag,B
   10      0.563D-05      0.171D-05      -127.05123429    211.557979    0.00000    0.00000   -1.23527    0    orth

 Final alpha occupancy:   5   2   2   1
 Final beta  occupancy:   4   2   2   1

 !RHF STATE 1.1 Energy               -127.051234286326
 Nuclear energy                         6.44029060
 One-electron energy                 -239.27051459
 Two-electron energy                  105.77898970
 Virial quotient                       -2.62627735
[...]
 
  RCCSD core-core energy               -0.116476635482
  RCCSD core-valence energy            -0.266630900239
  RCCSD valence correlation energy     -0.390965828943
 

 RESULTS
 =======

  Reference energy                   -127.002867450819
  RCCSD singles energy                 -0.001239778587
  RCCSD pair energy                    -0.772833586077
  RCCSD correlation energy             -0.774073364664
  Triples (T) contribution             -0.032296543518
  Total correlation energy             -0.806369908182
 
  RHF-RCCSD energy                   -127.776940815483
  RHF-RCCSD[T] energy                -127.810392089781
  RHF-RCCSD-T energy                 -127.809068283522
 !RHF-RCCSD(T) energy                -127.809237359001

 Program statistics:

 Available memory in ccsd:               511999000
 Min. memory needed in ccsd:               6371840
 Max. memory used in ccsd:                 8994336
 Max. memory used in cckext:               7244967 (11 integral passes)
 Max. memory used in cckint:               6842122 ( 1 integral passes)



 **********************************************************************************************************************************
 DATASETS  * FILE   NREC   LENGTH (MB)   RECORD NAMES
              1      19       20.87       500      610      700      900      950      970     1000      129      960     1100   
                                          VAR    BASINP    GEOM    SYMINP    ZMAT    AOBASIS   BASIS     P2S    ABASIS      S 
                                         1400     1410     1420     1200     1210     1080     1600     1650     1700   
                                           T        V       ECP      H0       H01     AOSYM     SMH    MOLCAS    OPER   

              2       4        3.40       700     1000      520     2100   
                                         GEOM     BASIS   MCVARS     RHF  

 PROGRAMS   *        TOTAL  RCCSD(T)       RHF       INT  RCCSD(T)       RHF       INT  RCCSD(T)       RHF       INT  RCCSD(T)
 CPU TIMES  *       917.41     60.06      0.63     19.02     66.36      0.55     18.28     63.69      0.61     18.58     61.10
 REAL TIME  *      1398.17 SEC
 DISK USED  *         8.82 GB      
 SF USED    *         1.24 GB      
 GA USED    *         0.00 MB       (max)       0.00 MB       (current)
 **********************************************************************************************************************************
 SETTING CCSD(10)       =      -127.80923736  AU                              

 DO I                   =        11.00000000   
 SETTING Z(11)          =         1.17900000                                  

Geometry recognized as XYZ



 Recomputing integrals since geometry changed


 PROGRAM * SEWARD (Integral evaluation for generally contracted gaussian basis sets)     Author: Roland Lindh, 1990

 Geometry written to block  1 of record 700


 Point group  C2v 



 ATOMIC COORDINATES

 NR  ATOM    CHARGE       X              Y              Z

   1  PD     18.00    0.000000000    0.000000000    0.000000000
   2  H       1.00    0.000000000    0.000000000    2.227987101

 Bond lengths in Bohr (Angstrom)

 1-2  2.227987101
     ( 1.179000000)

 NUCLEAR CHARGE:                   19
 NUMBER OF PRIMITIVE AOS:         312
 NUMBER OF SYMMETRY AOS:          263
 NUMBER OF CONTRACTIONS:          263   ( 116A1  +  59B1  +  59B2  +  29A2  )
 NUMBER OF CORE ORBITALS:           4   (   2A1  +   1B1  +   1B2  +   0A2  )
 NUMBER OF VALENCE ORBITALS:        7   (   4A1  +   1B1  +   1B2  +   1A2  )


 NUCLEAR REPULSION ENERGY    8.07904139

 EXTRA SYMMETRY OF AOS IN SYMMETRY 1:   1 1 1 1 1 1 1 1 1 1   1 1 1 1 1 1 1 1 1 1   1 1 1 1 1 1 1 1 1 1   1 1 1 1 1 1 1 1 1 1
                                        1 1 1 1 1 1 1 1 1 1   1 1 1 2 1 2 1 2 1 2   1 2 1 2 1 2 1 2 1 2   1 2 1 2 1 2 1 2 1 2
                                        1 2 1 2 1 2 1 2 1 2   1 2 1 2 1 3 2 1 3 2   1 3 2 1 1 1 1 1 1 1   1 1 1 2 1 2
 EXTRA SYMMETRY OF AOS IN SYMMETRY 2:   1 1 1 1 1 1 1 1 1 1   1 1 1 1 1 1 1 1 1 1   1 1 1 1 1 1 1 1 1 1   1 1 1 1 1 1 1 1 1 1
                                        1 2 1 2 1 2 1 2 1 2   1 2 1 2 1 1 1 1 1
 EXTRA SYMMETRY OF AOS IN SYMMETRY 3:   1 1 1 1 1 1 1 1 1 1   1 1 1 1 1 1 1 1 1 1   1 1 1 1 1 1 1 1 1 1   1 1 1 1 1 1 1 1 1 1
                                        1 2 1 2 1 2 1 2 1 2   1 2 1 2 1 1 1 1 1
 EXTRA SYMMETRY OF AOS IN SYMMETRY 4:   1 1 1 1 1 1 1 1 1 1   1 1 1 1 1 1 1 1 1 1   1 1 2 1 2 1 2 1 1

 Eigenvalues of metric

         1 0.886E-06 0.182E-05 0.886E-05 0.951E-05 0.234E-04 0.397E-04 0.111E-03 0.199E-03
         2 0.982E-06 0.929E-05 0.296E-03 0.471E-03 0.163E-02 0.296E-02 0.406E-02 0.579E-02
         3 0.982E-06 0.929E-05 0.296E-03 0.471E-03 0.163E-02 0.296E-02 0.406E-02 0.579E-02
         4 0.951E-05 0.307E-03 0.302E-02 0.107E-01 0.284E-01 0.514E-01 0.758E-01 0.104E+00


 Contracted 2-electron integrals neglected if value below      1.0D-13
 AO integral compression algorithm  1   Integral accuracy      1.0D-13

     612.368 MB (compressed) written to integral file ( 44.6%)

     Node minimum: 4.981 MB, node maximum: 63.701 MB


 NUMBER OF SORTED TWO-ELECTRON INTEGRALS:    6738189.     BUFFER LENGTH:  32768
 NUMBER OF SEGMENTS:   1  SEGMENT LENGTH:    6738189      RECORD LENGTH: 524288

 Memory used in sort:       7.30 MW

 SORT1 READ   171363336. AND WROTE     2931039. INTEGRALS IN      9 RECORDS. CPU TIME:     2.55 SEC, REAL TIME:     2.66 SEC
 SORT2 READ    68795683. AND WROTE   156329493. INTEGRALS IN   3082 RECORDS. CPU TIME:     0.65 SEC, REAL TIME:     0.80 SEC

 Node minimum:     6738189.  Node maximum:     6815662. integrals

 OPERATOR DM      FOR CENTER  0  COORDINATES:    0.000000    0.000000    0.000000


 **********************************************************************************************************************************
 DATASETS  * FILE   NREC   LENGTH (MB)   RECORD NAMES
              1      19       20.83       500      610      700      900      950      970     1000      129      960     1100   
                                          VAR    BASINP    GEOM    SYMINP    ZMAT    AOBASIS   BASIS     P2S    ABASIS      S 
                                         1400     1410     1420     1200     1210     1080     1600     1650     1700   
                                           T        V       ECP      H0       H01     AOSYM     SMH    MOLCAS    OPER   

              2       4        3.40       700     1000      520     2100   
                                         GEOM     BASIS   MCVARS     RHF  

 PROGRAMS   *        TOTAL       INT  RCCSD(T)       RHF       INT  RCCSD(T)       RHF       INT  RCCSD(T)       RHF       INT
 CPU TIMES  *       936.22     18.81     60.06      0.63     19.02     66.36      0.55     18.28     63.69      0.61     18.58
 REAL TIME  *      1417.64 SEC
 DISK USED  *         8.82 GB      
 SF USED    *         1.24 GB      
 GA USED    *         0.00 MB       (max)       0.00 MB       (current)
 **********************************************************************************************************************************


 PROGRAM * RHF-SCF (OPEN SHELL)       Authors: W. Meyer, H.-J. Werner


 NUMBER OF ELECTRONS:      10+    9-    SPACE SYMMETRY=1    SPIN SYMMETRY: Doublet 
 CONVERGENCE THRESHOLDS:    1.00E-05 (Density)    1.00E-07 (Energy)
 MAX. NUMBER OF ITERATIONS:       60
 INTERPOLATION TYPE:            DIIS
 INTERPOLATION STEPS:              2 (START)      1 (STEP)
 LEVEL SHIFTS:                 -0.60 (CLOSED) -0.30 (OPEN) 

 Number of closed-shell orbitals:    9 (   4   2   2   1 )
 Number of open-shell orbitals:      1 (   1   0   0   0 )


 Molecular orbitals read from record     2100.2  Type=RHF/CANONICAL (state 1.1)

 Molecular orbital dump at record        2100.2

 ITERATION    DDIFF          GRAD             ENERGY        2-EL.EN.            DIPOLE MOMENTS         DIIS   ORB.
    1      0.000D+00      0.000D+00      -126.97981603    214.363009    0.00000    0.00000   -0.82755    0    start
    2      0.000D+00      0.408D-02      -126.98093656    214.372379    0.00000    0.00000   -0.84488    1    diag,B
    3      0.964D-03      0.311D-03      -126.98111102    214.379651    0.00000    0.00000   -0.83206    2    diag,B
    4      0.242D-03      0.153D-03      -126.98121308    214.377365    0.00000    0.00000   -0.82465    3    diag,B
    5      0.145D-03      0.868D-04      -126.98128000    214.378187    0.00000    0.00000   -0.81275    4    diag,B
    6      0.136D-03      0.516D-04      -126.98131195    214.370902    0.00000    0.00000   -0.80239    5    diag,B
    7      0.114D-03      0.215D-04      -126.98131698    214.370109    0.00000    0.00000   -0.79788    6    diag,B
    8      0.286D-04      0.103D-04      -126.98131794    214.366448    0.00000    0.00000   -0.79590    7    orth
    9      0.144D-04      0.572D-05      -126.98131827    214.365395    0.00000    0.00000   -0.79480    8    diag,B
   10      0.102D-04      0.335D-05      -126.98131845    214.364185    0.00000    0.00000   -0.79382    9    diag,B
   11      0.751D-05      0.185D-05      -126.98131852    214.363293    0.00000    0.00000   -0.79307    9    diag,B
   12      0.700D-05      0.816D-06      -126.98131852    214.363184    0.00000    0.00000   -0.79301    0    orth

 Final alpha occupancy:   5   2   2   1
 Final beta  occupancy:   4   2   2   1

 !RHF STATE 1.1 Energy               -126.981318524337
 Nuclear energy                         8.07904139
 One-electron energy                 -242.24195195
 Two-electron energy                  107.18159204
 Virial quotient                       -2.60671956
 !RHF STATE 1.1 Dipole moment           0.00000000     0.00000000    -0.79301401
 Dipole moment /Debye                   0.00000000     0.00000000    -2.01550856

 Orbital energies:

         1.1          2.1          3.1          4.1          5.1          6.1          7.1
     -3.960619    -2.540684    -0.563314    -0.413516    -0.278371     0.014036     0.026319

         1.2          2.2          3.2          4.2
     -2.505291    -0.448970     0.023485     0.077415

         1.3          2.3          3.3          4.3
     -2.505291    -0.448970     0.023485     0.077415

         1.4          2.4          3.4
     -0.413516     0.099043     0.328356

 HOMO      5.1    -0.278371 =      -7.5749eV
 LUMO      6.1     0.014036 =       0.3819eV
 LUMO-HOMO         0.292407 =       7.9568eV


 **********************************************************************************************************************************
 DATASETS  * FILE   NREC   LENGTH (MB)   RECORD NAMES
              1      19       20.87       500      610      700      900      950      970     1000      129      960     1100   
                                          VAR    BASINP    GEOM    SYMINP    ZMAT    AOBASIS   BASIS     P2S    ABASIS      S 
                                         1400     1410     1420     1200     1210     1080     1600     1650     1700   
                                           T        V       ECP      H0       H01     AOSYM     SMH    MOLCAS    OPER   

              2       4        3.40       700     1000      520     2100   
                                         GEOM     BASIS   MCVARS     RHF  

 PROGRAMS   *        TOTAL       RHF       INT  RCCSD(T)       RHF       INT  RCCSD(T)       RHF       INT  RCCSD(T)       RHF
 CPU TIMES  *       937.05      0.83     18.81     60.06      0.63     19.02     66.36      0.55     18.28     63.69      0.61
 REAL TIME  *      1418.58 SEC
 DISK USED  *         8.82 GB      
 SF USED    *         1.24 GB      
 GA USED    *         0.00 MB       (max)       0.00 MB       (current)
 **********************************************************************************************************************************
 SETTING SCF(11)        =      -126.98131852  AU                              
 SETTING _CC_NORM_MAX   =         2.00000000                                  


 PROGRAM * CCSD (Restricted open-shell coupled cluster)     Authors: C. Hampel, H.-J. Werner, 1991, M. Deegan, P.J. Knowles, 1992


 Convergence thresholds:  THRVAR = 1.00D-08  THRDEN = 1.00D-06

 CCSD(T)     terms to be evaluated (factor= 1.000)


 Number of closed-shell orbitals:   9 (   4   2   2   1 )
 Number of active  orbitals:        1 (   1   0   0   0 )
 Number of external orbitals:     253 ( 111  57  57  28 )

 Memory could be reduced to 80.26 Mwords without degradation in triples

 Number of N-1 electron functions:              19
 Number of N-2 electron functions:             171
 Number of singly external CSFs:              1520
 Number of doubly external CSFs:           2149669
 Total number of CSFs:                     2151189

 Molecular orbitals read from record     2100.2  Type=RHF/CANONICAL (state 1.1)

 Integral transformation finished. Total CPU:   2.51 sec, npass=  1  Memory used:   6.84 MW

 Starting RMP2 calculation

 Wavefunction is spin-projected

 ITER.      SQ.NORM     CORR.ENERGY   TOTAL ENERGY   ENERGY CHANGE        DEN1      VAR(S)    VAR(P)  DIIS     TIME
   1      1.15856864    -0.81840816  -127.79972669    -0.81840816    -0.00131733  0.73D-05  0.48D-03  1  1     3.10
   2      1.15970909    -0.81979523  -127.80111376    -0.00138707    -0.00000295  0.14D-06  0.17D-05  2  2     6.69
   3      1.15976507    -0.81982964  -127.80114816    -0.00003440    -0.00000001  0.40D-08  0.65D-08  3  3     7.36
   4      1.15976643    -0.81982987  -127.80114840    -0.00000023    -0.00000000  0.12D-09  0.24D-10  4  4     8.31

 Norm of t1 vector:      0.02388178      S-energy:    -0.00111810      T1 diagnostic:  0.00025039
 Norm of t2 vector:      0.39899385      P-energy:    -0.81871177
                                         Alpha-Beta:  -0.56534911
                                         Alpha-Alpha: -0.13676889
                                         Beta-Beta:   -0.11659377

 Spin contamination <S**2-Sz**2-Sz>     0.00000000
  Reference energy                   -126.981318524338
  RHF-RMP2 correlation energy          -0.819829871006
 !RHF-RMP2 energy                    -127.801148395343
 (NB above energy spin projected)

 Starting RCCSD calculation

 ITER.      SQ.NORM     CORR.ENERGY   TOTAL ENERGY   ENERGY CHANGE        DEN1      VAR(S)    VAR(P)  DIIS     TIME
   1      1.12925673    -0.75541946  -127.73673799    -0.75541946    -0.01996699  0.31D-02  0.36D-02  1  1    10.92
   2      1.13998078    -0.77251095  -127.75382947    -0.01709148    -0.00115511  0.29D-03  0.34D-03  2  2    13.40
   3      1.14362305    -0.77343456  -127.75475308    -0.00092361    -0.00020384  0.19D-03  0.26D-04  3  3    15.92
   4      1.14626761    -0.77412285  -127.75544138    -0.00068829    -0.00005197  0.56D-04  0.66D-05  4  4    19.23
   5      1.14861650    -0.77451282  -127.75583134    -0.00038996    -0.00001054  0.14D-04  0.11D-05  5  5    21.73
   6      1.14966029    -0.77458994  -127.75590846    -0.00007712    -0.00000268  0.39D-05  0.22D-06  6  6    25.49
   7      1.15027924    -0.77462828  -127.75594680    -0.00003834    -0.00000061  0.73D-06  0.69D-07  6  2    27.72
   8      1.15045137    -0.77462870  -127.75594722    -0.00000042    -0.00000009  0.79D-07  0.17D-07  6  1    30.58
   9      1.15050903    -0.77462776  -127.75594629     0.00000094    -0.00000001  0.72D-08  0.27D-08  6  4    32.87

 Norm of t1 vector:      0.10849916      S-energy:    -0.00111719      T1 diagnostic:  0.01713489
                                                                       D1 diagnostic:  0.05579982
 Norm of t2 vector:      0.37247411      P-energy:    -0.77351057
                                         Alpha-Beta:  -0.55620092
                                         Alpha-Alpha: -0.11733545
                                         Beta-Beta:   -0.09997421

 Spin contamination <S**2-Sz**2-Sz>     0.00000000

 Memory could be reduced to 80.80 Mwords without degradation in triples
 

  Correlated core orbitals:             1.1       2.1       1.2       1.3
  Orbital energies:                    -3.9734   -2.5638   -2.5131   -2.5131
 
  RCCSD core-core energy               -0.115964920935
  RCCSD core-valence energy            -0.266574300076
  RCCSD valence correlation energy     -0.392088540547
 

 RESULTS
 =======

  Reference energy                   -126.981318524338
  RCCSD singles energy                 -0.001117188323
  RCCSD pair energy                    -0.773510573236
  RCCSD correlation energy             -0.774627761559
  Triples (T) contribution             -0.032215115101
  Total correlation energy             -0.806842876660
 
  RHF-RCCSD energy                   -127.755946285896
  RHF-RCCSD[T] energy                -127.789210899034
  RHF-RCCSD-T energy                 -127.787994625981
 !RHF-RCCSD(T) energy                -127.788161400997

 Program statistics:

 Available memory in ccsd:               511999000
 Min. memory needed in ccsd:               6371840
 Max. memory used in ccsd:                 8994336
 Max. memory used in cckext:               7244967 ( 9 integral passes)
 Max. memory used in cckint:               6842122 ( 1 integral passes)



 **********************************************************************************************************************************
 DATASETS  * FILE   NREC   LENGTH (MB)   RECORD NAMES
              1      19       20.87       500      610      700      900      950      970     1000      129      960     1100   
                                          VAR    BASINP    GEOM    SYMINP    ZMAT    AOBASIS   BASIS     P2S    ABASIS      S 
                                         1400     1410     1420     1200     1210     1080     1600     1650     1700   
                                           T        V       ECP      H0       H01     AOSYM     SMH    MOLCAS    OPER   

              2       4        3.40       700     1000      520     2100   
                                         GEOM     BASIS   MCVARS     RHF  

 PROGRAMS   *        TOTAL  RCCSD(T)       RHF       INT  RCCSD(T)       RHF       INT  RCCSD(T)       RHF       INT  RCCSD(T)
 CPU TIMES  *       994.87     57.75      0.83     18.81     60.06      0.63     19.02     66.36      0.55     18.28     63.69
 REAL TIME  *      1504.56 SEC
 DISK USED  *         8.82 GB      
 SF USED    *         1.24 GB      
 GA USED    *         0.00 MB       (max)       0.00 MB       (current)
 **********************************************************************************************************************************
 SETTING CCSD(11)       =      -127.78816140  AU                              
 Output type csv         
                                                                                                                                                                                                                                                                

     Z,SCF,CCSD
   1.679,   -127.0556129,   -127.8434265
   1.629,   -127.0560577,   -127.8463754
   1.579,   -127.0556059,   -127.8485010
   1.529,   -127.0540747,   -127.8495512
   1.479,   -127.0512343,   -127.8492097
   1.429,   -127.0467864,   -127.8470847
   1.379,   -127.0403357,   -127.8426973
   1.329,   -127.0313579,   -127.8354504
   1.279,   -127.0191654,   -127.8246067
   1.229,   -127.0028675,   -127.8092374
   1.179,   -126.9813185,   -127.7881614
                                                  

 RCCSD(T)/USERDEF energy=   -127.788161400997

        RCCSD(T)        RHF-SCF         RCCSD(T)        RHF-SCF         RCCSD(T)        RHF-SCF         RCCSD(T)        RHF-SCF 
   -127.78816140   -126.98131852   -127.80923736   -127.00286745   -127.82460668   -127.01916539   -127.83545042   -127.03135790
 **********************************************************************************************************************************
 Molpro calculation terminated
 Variable memory released
