
 Primary working directories    : /global/cscratch1/sd/bkincaid
 Secondary working directories  : /global/cscratch1/sd/bkincaid
 Wavefunction directory         : /global/homes/b/bkincaid/wfu/
 Main file repository           : /global/cscratch1/sd/bkincaid/

 SHA1      : 19cd028119e0e09f93f0674bd8af7968d9b3eff6
 NAME      : 2015.1.36
 ARCHNAME  : linux/x86_64
 FC        : /opt/cray/pe/craype/2.5.14/bin/ftn
 BLASLIB   : -L/opt/intel/compilers_and_libraries_2018.1.163/linux/mkl/lib/intel64 -Wl,-_start-group -lmkl_intel_ilp64 -lmkl_intel_thread -lmkl_core -Wl,-_end-group -liomp5
 id        : lbl

 Nodes     nprocs
 nid00760    23
 Number of processes for MPI-2 version of Molpro:   nprocs(total)=   24   nprocs(compute)=   23   nprocs(helper)=    1

 Using customized tuning parameters: mindgm=7; mindgv=16; mindgc=1; mindgr=1; noblas=0; minvec=7
 default implementation of scratch files=sf  

 ***,Calculation for PdO groundstate
 memory,512,m
 gthresh,twoint=1.0E-12
 gthresh,throvl=1.0E-12
                                                                                 !symmetry,nosym
 
 basis={
 Including file /global/u1/b/bkincaid/molpro/Pd/molecules/PdO/tz/ecps/bk16.5/bk16.5
 Including file /global/u1/b/bkincaid/molpro/Pd/molecules/PdO/tz/ecps/bk16.5/Pd-aug-cc-pwCVTZ.basis
 ecp,O,2,1,0
 3
 1,  12.30997,  6.000000
 3,  14.76962,  73.85984
 2,  13.71419, -47.87600
 1
 2,  13.65512,  85.86406
 Including file /global/u1/b/bkincaid/molpro/Pd/molecules/PdO/tz/ecps/bk16.5/O-aug-cc-CVTZ.basis
 }
 
 OE=-75.09181489
 PdE=-5044.366379
 
 A1=6
 B1=3
 B2=3
 A2=1
 
 ne = 24
 do i=1,11
 z(i) = 1.985 - 0.05*(i-1)
 geometry={
         2
         PdO
         Pd 0.0 0.0 0.0
         O 0.0 0.0 z(i)
 }
 {rhf
 wf,nelec=ne,spin=2,sym=2
 occ,A1,B1,B2,A2
 closed,A1-1,B1-1,B2,A2
 }
 
 scf(i)=energy
 _CC_NORM_MAX=2.0
 {rccsd(t);maxit,100;core}
 ccsd(i)=energy
 enddo
 
 table,z,scf,ccsd
 save
 type,csv

 Variables initialized (889), CPU time= 0.00 sec
 Commands  initialized (702), CPU time= 0.01 sec, 572 directives.
 Default parameters read. Elapsed time= 0.14 sec

 Checking input...
 Passed
1


                                         ***  PROGRAM SYSTEM MOLPRO  ***
                                       Copyright, TTI GmbH Stuttgart, 2015
                                    Version 2015.1 linked Dec 29 2018 15:55:43


 **********************************************************************************************************************************
 LABEL *   Calculation for PdO groundstate                                               
  64 bit mpp version                                                                     DATE: 16-Apr-21          TIME: 02:57:55  
 **********************************************************************************************************************************

 SHA1:             19cd028119e0e09f93f0674bd8af7968d9b3eff6
 **********************************************************************************************************************************

 THRESHOLDS:

 ZERO    =  1.00D-12  ONEINT  =  1.00D-12  TWOINT  =  1.00D-12  PREFAC  =  1.00D-14  LOCALI  =  1.00D-09  EORDER  =  1.00D-04
 ENERGY  =  0.00D+00  ETEST   =  0.00D+00  EDENS   =  0.00D+00  THRDEDEF=  1.00D-06  GRADIENT=  1.00D-02  STEP    =  1.00D-03
 ORBITAL =  1.00D-05  CIVEC   =  1.00D-05  COEFF   =  1.00D-04  PRINTCI =  5.00D-02  PUNCHCI =  9.90D+01  OPTGRAD =  3.00D-04
 OPTENERG=  1.00D-06  OPTSTEP =  3.00D-04  THRGRAD =  1.00D-10  COMPRESS=  1.00D-11  VARMIN  =  1.00D-07  VARMAX  =  1.00D-03
 THRDOUB =  0.00D+00  THRDIV  =  1.00D-05  THRRED  =  1.00D-07  THRPSP  =  1.00D+00  THRDC   =  1.00D-10  THRCS   =  1.00D-10
 THRNRM  =  1.00D-08  THREQ   =  0.00D+00  THRDE   =  1.00D+00  THRREF  =  1.00D-05  SPARFAC =  1.00D+00  THRDLP  =  1.00D-07
 THRDIA  =  1.00D-10  THRDLS  =  1.00D-07  THRGPS  =  0.00D+00  THRKEX  =  0.00D+00  THRDIS  =  2.00D-01  THRVAR  =  1.00D-10
 THRLOC  =  1.00D-06  THRGAP  =  1.00D-06  THRLOCT = -1.00D+00  THRGAPT = -1.00D+00  THRORB  =  1.00D-06  THRMLTP =  0.00D+00
 THRCPQCI=  1.00D-10  KEXTA   =  0.00D+00  THRCOARS=  0.00D+00  SYMTOL  =  1.00D-06  GRADTOL =  1.00D-06  THROVL  =  1.00D-08
 THRORTH =  1.00D-08  GRID    =  1.00D-06  GRIDMAX =  1.00D-03  DTMAX   =  0.00D+00  THROCCDE=  1.00D-01  THROCCDE=  1.00D-01



 THRESHOLDS:

 ZERO    =  1.00D-12  ONEINT  =  1.00D-12  TWOINT  =  1.00D-12  PREFAC  =  1.00D-14  LOCALI  =  1.00D-09  EORDER  =  1.00D-04
 ENERGY  =  0.00D+00  ETEST   =  0.00D+00  EDENS   =  0.00D+00  THRDEDEF=  1.00D-06  GRADIENT=  1.00D-02  STEP    =  1.00D-03
 ORBITAL =  1.00D-05  CIVEC   =  1.00D-05  COEFF   =  1.00D-04  PRINTCI =  5.00D-02  PUNCHCI =  9.90D+01  OPTGRAD =  3.00D-04
 OPTENERG=  1.00D-06  OPTSTEP =  3.00D-04  THRGRAD =  1.00D-10  COMPRESS=  1.00D-11  VARMIN  =  1.00D-07  VARMAX  =  1.00D-03
 THRDOUB =  0.00D+00  THRDIV  =  1.00D-05  THRRED  =  1.00D-07  THRPSP  =  1.00D+00  THRDC   =  1.00D-10  THRCS   =  1.00D-10
 THRNRM  =  1.00D-08  THREQ   =  0.00D+00  THRDE   =  1.00D+00  THRREF  =  1.00D-05  SPARFAC =  1.00D+00  THRDLP  =  1.00D-07
 THRDIA  =  1.00D-10  THRDLS  =  1.00D-07  THRGPS  =  0.00D+00  THRKEX  =  0.00D+00  THRDIS  =  2.00D-01  THRVAR  =  1.00D-10
 THRLOC  =  1.00D-06  THRGAP  =  1.00D-06  THRLOCT = -1.00D+00  THRGAPT = -1.00D+00  THRORB  =  1.00D-06  THRMLTP =  0.00D+00
 THRCPQCI=  1.00D-10  KEXTA   =  0.00D+00  THRCOARS=  0.00D+00  SYMTOL  =  1.00D-06  GRADTOL =  1.00D-06  THROVL  =  1.00D-12
 THRORTH =  1.00D-08  GRID    =  1.00D-06  GRIDMAX =  1.00D-03  DTMAX   =  0.00D+00  THROCCDE=  1.00D-01  THROCCDE=  1.00D-01



 Variable memory set to  512000000 words,  buffer space   230000 words

 SETTING BASIS          =    USERDEF
 SETTING OE             =       -75.09181489                                  
 SETTING PDE            =     -5044.36637900                                  
 SETTING A1             =         6.00000000                                  
 SETTING B1             =         3.00000000                                  
 SETTING B2             =         3.00000000                                  
 SETTING A2             =         1.00000000                                  
 SETTING NE             =        24.00000000                                  

 DO I                   =         1.00000000   
 SETTING Z(1)           =         1.98500000                                  

Geometry recognized as XYZ



 Recomputing integrals since basis changed


 Using spherical harmonics



 PROGRAM * SEWARD (Integral evaluation for generally contracted gaussian basis sets)     Author: Roland Lindh, 1990

 Geometry written to block  1 of record 700


 Point group  C2v 



 ATOMIC COORDINATES

 NR  ATOM    CHARGE       X              Y              Z

   1  PD     18.00    0.000000000    0.000000000    0.000000000
   2  O       6.00    0.000000000    0.000000000    3.751106357

 Bond lengths in Bohr (Angstrom)

 1-2  3.751106357
     ( 1.985000000)

 NUCLEAR CHARGE:                   24
 NUMBER OF PRIMITIVE AOS:         370
 NUMBER OF SYMMETRY AOS:          313
 NUMBER OF CONTRACTIONS:          313   ( 138A1  +  71B1  +  71B2  +  33A2  )
 NUMBER OF CORE ORBITALS:           4   (   2A1  +   1B1  +   1B2  +   0A2  )
 NUMBER OF VALENCE ORBITALS:       10   (   5A1  +   2B1  +   2B2  +   1A2  )


 NUCLEAR REPULSION ENERGY   28.79150568

 EXTRA SYMMETRY OF AOS IN SYMMETRY 1:   1 1 1 1 1 1 1 1 1 1   1 1 1 1 1 1 1 1 1 1   1 1 1 1 1 1 1 1 1 1   1 1 1 1 1 1 1 1 1 1
                                        1 1 1 1 1 1 1 1 1 1   1 1 1 2 1 2 1 2 1 2   1 2 1 2 1 2 1 2 1 2   1 2 1 2 1 2 1 2 1 2
                                        1 2 1 2 1 2 1 2 1 2   1 2 1 2 1 3 2 1 3 2   1 3 2 1 1 1 1 1 1 1   1 1 1 1 1 1 1 1 1 1
                                        1 1 1 1 1 1 1 2 1 2   1 2 1 2 1 2 1 2
 EXTRA SYMMETRY OF AOS IN SYMMETRY 2:   1 1 1 1 1 1 1 1 1 1   1 1 1 1 1 1 1 1 1 1   1 1 1 1 1 1 1 1 1 1   1 1 1 1 1 1 1 1 1 1
                                        1 2 1 2 1 2 1 2 1 2   1 2 1 2 1 1 1 1 1 1   1 1 1 1 1 1 1 1 2 1   2
 EXTRA SYMMETRY OF AOS IN SYMMETRY 3:   1 1 1 1 1 1 1 1 1 1   1 1 1 1 1 1 1 1 1 1   1 1 1 1 1 1 1 1 1 1   1 1 1 1 1 1 1 1 1 1
                                        1 2 1 2 1 2 1 2 1 2   1 2 1 2 1 1 1 1 1 1   1 1 1 1 1 1 1 1 2 1   2
 EXTRA SYMMETRY OF AOS IN SYMMETRY 4:   1 1 1 1 1 1 1 1 1 1   1 1 1 1 1 1 1 1 1 1   1 1 2 1 2 1 2 1 1 1   1 1 1

 Eigenvalues of metric

         1 0.890E-06 0.944E-06 0.190E-05 0.902E-05 0.951E-05 0.125E-04 0.264E-04 0.367E-04
         2 0.955E-06 0.982E-06 0.936E-05 0.300E-03 0.471E-03 0.163E-02 0.217E-02 0.300E-02
         3 0.955E-06 0.982E-06 0.936E-05 0.300E-03 0.471E-03 0.163E-02 0.217E-02 0.300E-02
         4 0.951E-05 0.307E-03 0.302E-02 0.107E-01 0.287E-01 0.528E-01 0.881E-01 0.105E+00


 Contracted 2-electron integrals neglected if value below      1.0D-13
 AO integral compression algorithm  1   Integral accuracy      1.0D-13

     925.368 MB (compressed) written to integral file ( 30.8%)

     Node minimum: 15.466 MB, node maximum: 109.314 MB


 NUMBER OF SORTED TWO-ELECTRON INTEGRALS:   13592913.     BUFFER LENGTH:  32768
 NUMBER OF SEGMENTS:   1  SEGMENT LENGTH:   13592913      RECORD LENGTH: 524288

 Memory used in sort:      14.15 MW

 SORT1 READ   375719576. AND WROTE     5415814. INTEGRALS IN     16 RECORDS. CPU TIME:     8.80 SEC, REAL TIME:    10.33 SEC
 SORT2 READ   124261638. AND WROTE   312994044. INTEGRALS IN   3450 RECORDS. CPU TIME:     0.50 SEC, REAL TIME:     1.18 SEC

 Node minimum:    13561530.  Node maximum:    13694643. integrals

 OPERATOR DM      FOR CENTER  0  COORDINATES:    0.000000    0.000000    0.000000


 **********************************************************************************************************************************
 DATASETS  * FILE   NREC   LENGTH (MB)   RECORD NAMES
              1      19       21.20       500      610      700      900      950      970     1000      129      960     1100   
                                          VAR    BASINP    GEOM    SYMINP    ZMAT    AOBASIS   BASIS     P2S    ABASIS      S 
                                         1400     1410     1420     1200     1210     1080     1600     1650     1700   
                                           T        V       ECP      H0       H01     AOSYM     SMH    MOLCAS    OPER   

 PROGRAMS   *        TOTAL       INT
 CPU TIMES  *        29.11     28.59
 REAL TIME  *        32.38 SEC
 DISK USED  *         2.45 GB      
 GA USED    *         0.00 MB       (max)       0.00 MB       (current)
 **********************************************************************************************************************************


 PROGRAM * RHF-SCF (OPEN SHELL)       Authors: W. Meyer, H.-J. Werner


 NUMBER OF ELECTRONS:      13+   11-    SPACE SYMMETRY=2    SPIN SYMMETRY: Triplet 
 CONVERGENCE THRESHOLDS:    1.00E-05 (Density)    1.00E-07 (Energy)
 MAX. NUMBER OF ITERATIONS:       60
 INTERPOLATION TYPE:            DIIS
 INTERPOLATION STEPS:              2 (START)      1 (STEP)
 LEVEL SHIFTS:                 -0.60 (CLOSED) -0.30 (OPEN) 

 Number of closed-shell orbitals:   11 (   5   2   3   1 )
 Number of open-shell orbitals:      2 (   1   1   0   0 )


 Orbital guess generated from atomic densities. Full valence occupancy:    7   3   3   1

 Molecular orbital dump at record        2100.2

 ITERATION    DDIFF          GRAD             ENERGY        2-EL.EN.            DIPOLE MOMENTS         DIIS   ORB.
    1      0.000D+00      0.000D+00      -142.40361598    277.579935    0.00000    0.00000   -3.76694    0    start
    2      0.000D+00      0.709D-02      -142.46260797    280.441097    0.00000    0.00000   -1.83273    1    diag,B
    3      0.102D-01      0.599D-02      -142.49162452    279.049231    0.00000    0.00000   -2.14053    2    diag,B
    4      0.409D-02      0.154D-02      -142.50410295    279.362790    0.00000    0.00000   -1.97052    3    diag,B
    5      0.125D-02      0.128D-02      -142.51599489    279.368812    0.00000    0.00000   -1.87554    4    diag,B
    6      0.747D-03      0.109D-02      -142.53082193    279.375225    0.00000    0.00000   -1.85516    5    diag,B
    7      0.100D-02      0.906D-03      -142.54697704    279.193698    0.00000    0.00000   -1.98900    6    fixocc
    8      0.117D-02      0.665D-03      -142.55543653    278.866678    0.00000    0.00000   -2.16342    7    diag,B
    9      0.924D-03      0.454D-03      -142.55693275    278.821264    0.00000    0.00000   -2.24285    8    diag,B
   10      0.813D-03      0.553D-03      -142.56068228    278.584750    0.00000    0.00000   -2.35545    9    orth
   11      0.102D-02      0.482D-03      -142.56062410    278.456999    0.00000    0.00000   -2.39725    9    diag,B
   12      0.466D-03      0.232D-03      -142.56093421    278.526898    0.00000    0.00000   -2.36540    9    diag,B
   13      0.325D-03      0.901D-04      -142.56103209    278.504668    0.00000    0.00000   -2.37736    9    diag,B
   14      0.141D-03      0.271D-04      -142.56103823    278.501503    0.00000    0.00000   -2.37752    9    diag,B
   15      0.579D-04      0.134D-04      -142.56103969    278.500955    0.00000    0.00000   -2.37647    9    diag,B
   16      0.215D-04      0.548D-05      -142.56104004    278.501671    0.00000    0.00000   -2.37624    9    diag,B
   17      0.122D-04      0.362D-05      -142.56104023    278.501509    0.00000    0.00000   -2.37618    9    diag,B
   18      0.654D-05      0.341D-05      -142.56104037    278.501573    0.00000    0.00000   -2.37636    9    diag,B
   19      0.556D-05      0.261D-05      -142.56104046    278.501617    0.00000    0.00000   -2.37643    9    diag,B
   20      0.258D-05      0.182D-05      -142.56104054    278.501523    0.00000    0.00000   -2.37646    0    orth

 Final alpha occupancy:   6   3   3   1
 Final beta  occupancy:   5   2   3   1

 !RHF STATE 1.2 Energy               -142.561040539978
 Nuclear energy                        28.79150568
 One-electron energy                 -310.60330788
 Two-electron energy                  139.25076166
 Virial quotient                       -2.36826276
 !RHF STATE 1.2 Dipole moment           0.00000000     0.00000000    -2.37645985
 Dipole moment /Debye                   0.00000000     0.00000000    -6.03996284

 Orbital energies:

         1.1          2.1          3.1          4.1          5.1          6.1          7.1          8.1
     -3.984976    -2.564896    -1.143244    -0.458792    -0.455604    -0.455474    -0.015553     0.031565

         1.2          2.2          3.2          4.2          5.2
     -2.562556    -0.484873    -0.511139     0.021689     0.077286

         1.3          2.3          3.3          4.3          5.3
     -2.562366    -0.505119    -0.387321     0.022629     0.078651

         1.4          2.4          3.4
     -0.457815     0.093506     0.313638

 HOMO      3.3    -0.387321 =     -10.5395eV
 LUMO      7.1    -0.015553 =      -0.4232eV
 LUMO-HOMO         0.371768 =      10.1163eV


 **********************************************************************************************************************************
 DATASETS  * FILE   NREC   LENGTH (MB)   RECORD NAMES
              1      19       21.25       500      610      700      900      950      970     1000      129      960     1100   
                                          VAR    BASINP    GEOM    SYMINP    ZMAT    AOBASIS   BASIS     P2S    ABASIS      S 
                                         1400     1410     1420     1200     1210     1080     1600     1650     1700   
                                           T        V       ECP      H0       H01     AOSYM     SMH    MOLCAS    OPER   

              2       4        3.66       700     1000      520     2100   
                                         GEOM     BASIS   MCVARS     RHF  

 PROGRAMS   *        TOTAL       RHF       INT
 CPU TIMES  *        31.86      2.75     28.59
 REAL TIME  *        35.42 SEC
 DISK USED  *         3.13 GB      
 SF USED    *         0.12 MB      
 GA USED    *         0.00 MB       (max)       0.00 MB       (current)
 **********************************************************************************************************************************
 SETTING SCF(1)         =      -142.56104054  AU                              
 SETTING _CC_NORM_MAX   =         2.00000000                                  


 PROGRAM * CCSD (Restricted open-shell coupled cluster)     Authors: C. Hampel, H.-J. Werner, 1991, M. Deegan, P.J. Knowles, 1992


 Convergence thresholds:  THRVAR = 1.00D-08  THRDEN = 1.00D-06

 CCSD(T)     terms to be evaluated (factor= 1.000)


 Number of closed-shell orbitals:  11 (   5   2   3   1 )
 Number of active  orbitals:        2 (   1   1   0   0 )
 Number of external orbitals:     300 ( 132  68  68  32 )

 Memory could be reduced to 156.60 Mwords without degradation in triples

 Number of N-1 electron functions:              24
 Number of N-2 electron functions:             276
 Number of singly external CSFs:              2280
 Number of doubly external CSFs:           4894910
 Total number of CSFs:                     4897190

 Molecular orbitals read from record     2100.2  Type=RHF/CANONICAL (state 1.2)

 Integral transformation finished. Total CPU:   6.61 sec, npass=  1  Memory used:  15.00 MW

 Starting RMP2 calculation

 Wavefunction is spin-projected

 ITER.      SQ.NORM     CORR.ENERGY   TOTAL ENERGY   ENERGY CHANGE        DEN1      VAR(S)    VAR(P)  DIIS     TIME
   1      1.18127324    -0.95276151  -143.51380205    -0.95276151    -0.00161514  0.85D-05  0.57D-03  1  1     9.49
   2      1.18266526    -0.95447739  -143.51551793    -0.00171588    -0.00000535  0.22D-06  0.29D-05  2  2    11.99
   3      1.18274336    -0.95452624  -143.51556678    -0.00004885    -0.00000004  0.93D-08  0.17D-07  3  3    13.76
   4      1.18274531    -0.95452642  -143.51556696    -0.00000018    -0.00000000  0.27D-09  0.14D-09  4  4    15.26

 Norm of t1 vector:      0.04097985      S-energy:    -0.00574991      T1 diagnostic:  0.00044546
 Norm of t2 vector:      0.42551846      P-energy:    -0.94877651
                                         Alpha-Beta:  -0.67107108
                                         Alpha-Alpha: -0.15886699
                                         Beta-Beta:   -0.11883844

 Spin contamination <S**2-Sz**2-Sz>     0.00000000
  Reference energy                   -142.561040539978
  RHF-RMP2 correlation energy          -0.954526415695
 !RHF-RMP2 energy                    -143.515566955673
 (NB above energy spin projected)

 Starting RCCSD calculation

 ITER.      SQ.NORM     CORR.ENERGY   TOTAL ENERGY   ENERGY CHANGE        DEN1      VAR(S)    VAR(P)  DIIS     TIME
   1      1.16756790    -0.91255063  -143.47359117    -0.91255063    -0.02215081  0.82D-02  0.30D-02  1  1    22.36
   2      1.18340596    -0.93096288  -143.49200342    -0.01841225    -0.00265180  0.57D-03  0.85D-03  2  2    28.89
   3      1.19692746    -0.93376900  -143.49480954    -0.00280612    -0.00094123  0.10D-02  0.94D-04  3  3    35.11
   4      1.20872338    -0.93594913  -143.49698967    -0.00218013    -0.00041875  0.38D-03  0.66D-04  4  4    41.45
   5      1.23023096    -0.93839952  -143.49944006    -0.00245039    -0.00012862  0.10D-03  0.25D-04  5  5    47.51
   6      1.24472613    -0.93944312  -143.50048366    -0.00104359    -0.00003955  0.25D-04  0.11D-04  6  6    54.00
   7      1.25419351    -0.94002311  -143.50106365    -0.00058000    -0.00001150  0.66D-05  0.35D-05  6  1    59.98
   8      1.25604338    -0.94006487  -143.50110541    -0.00004176    -0.00000280  0.14D-05  0.90D-06  6  3    66.71
   9      1.25776646    -0.94019016  -143.50123070    -0.00012529    -0.00000054  0.24D-06  0.21D-06  6  2    72.64
  10      1.25756199    -0.94017397  -143.50121451     0.00001619    -0.00000013  0.77D-07  0.39D-07  6  5    78.69
  11      1.25767300    -0.94017940  -143.50121994    -0.00000543    -0.00000005  0.33D-07  0.12D-07  6  4    84.53
  12      1.25765624    -0.94017736  -143.50121790     0.00000204    -0.00000002  0.18D-07  0.22D-08  6  3    90.65
  13      1.25762874    -0.94017446  -143.50121500     0.00000290    -0.00000001  0.10D-07  0.11D-08  6  6    96.69
  14      1.25762989    -0.94017630  -143.50121684    -0.00000184    -0.00000000  0.41D-08  0.57D-09  6  1   102.45
  15      1.25761344    -0.94017518  -143.50121572     0.00000112    -0.00000000  0.16D-08  0.31D-09  6  2   108.17
  16      1.25760468    -0.94017450  -143.50121504     0.00000068    -0.00000000  0.79D-09  0.14D-09  6  5   114.90

 Norm of t1 vector:      0.25124603      S-energy:    -0.00630546      T1 diagnostic:  0.03541570
                                                                       D1 diagnostic:  0.11433790
 Norm of t2 vector:      0.44099900      P-energy:    -0.93386905
                                         Alpha-Beta:  -0.68428418
                                         Alpha-Alpha: -0.14050329
                                         Beta-Beta:   -0.10908158

 Singles amplitudes (print threshold =  0.500E-01):

         I         SYM. A    A   T(IA) [Alpha-Alpha]

         6         1         2     -0.06465195
 
         I         SYM. A    A   T(IA) [Beta-Beta]

         4         1         1     -0.09433547
         5         1         1     -0.13114636
         8         2         1      0.11071075

 Doubles amplitudes (print threshold =  0.500E-01):

         I         J         SYM. A    SYM. B    A         B      T(IJ, AB) [Beta-Beta]

         8         5         1         2         1         1      0.05502073
         8         5         2         1         1         1     -0.05502073

 Spin contamination <S**2-Sz**2-Sz>     0.00000000

 Memory could be reduced to 164.20 Mwords without degradation in triples
 

  Correlated core orbitals:             1.1       2.1       1.2       1.3
  Orbital energies:                    -4.0166   -2.6353   -2.5841   -2.5857
 
  RCCSD core-core energy               -0.119881677829
  RCCSD core-valence energy            -0.262517319380
  RCCSD valence correlation energy     -0.557775507749
 

 RESULTS
 =======

  Reference energy                   -142.561040539978
  RCCSD singles energy                 -0.006305458380
  RCCSD pair energy                    -0.933869046577
  RCCSD correlation energy             -0.940174504957
  Triples (T) contribution             -0.039057154331
  Total correlation energy             -0.979231659289
 
  RHF-RCCSD energy                   -143.501215044936
  RHF-RCCSD[T] energy                -143.544327617677
  RHF-RCCSD-T energy                 -143.539846207133
 !RHF-RCCSD(T) energy                -143.540272199267

 Program statistics:

 Available memory in ccsd:               511998418
 Min. memory needed in ccsd:              14064756
 Max. memory used in ccsd:                20157915
 Max. memory used in cckext:              15861012 (16 integral passes)
 Max. memory used in cckint:              15004909 ( 1 integral passes)



 **********************************************************************************************************************************
 DATASETS  * FILE   NREC   LENGTH (MB)   RECORD NAMES
              1      19       21.25       500      610      700      900      950      970     1000      129      960     1100   
                                          VAR    BASINP    GEOM    SYMINP    ZMAT    AOBASIS   BASIS     P2S    ABASIS      S 
                                         1400     1410     1420     1200     1210     1080     1600     1650     1700   
                                           T        V       ECP      H0       H01     AOSYM     SMH    MOLCAS    OPER   

              2       4        3.66       700     1000      520     2100   
                                         GEOM     BASIS   MCVARS     RHF  

 PROGRAMS   *        TOTAL  RCCSD(T)       RHF       INT
 CPU TIMES  *       221.89    189.98      2.75     28.59
 REAL TIME  *       360.56 SEC
 DISK USED  *        17.25 GB      
 SF USED    *         2.74 GB      
 GA USED    *         0.00 MB       (max)       0.00 MB       (current)
 **********************************************************************************************************************************
 SETTING CCSD(1)        =      -143.54027220  AU                              

 DO I                   =         2.00000000   
 SETTING Z(2)           =         1.93500000                                  

Geometry recognized as XYZ



 Recomputing integrals since geometry changed


 PROGRAM * SEWARD (Integral evaluation for generally contracted gaussian basis sets)     Author: Roland Lindh, 1990

 Geometry written to block  1 of record 700


 Point group  C2v 



 ATOMIC COORDINATES

 NR  ATOM    CHARGE       X              Y              Z

   1  PD     18.00    0.000000000    0.000000000    0.000000000
   2  O       6.00    0.000000000    0.000000000    3.656620051

 Bond lengths in Bohr (Angstrom)

 1-2  3.656620051
     ( 1.935000000)

 NUCLEAR CHARGE:                   24
 NUMBER OF PRIMITIVE AOS:         370
 NUMBER OF SYMMETRY AOS:          313
 NUMBER OF CONTRACTIONS:          313   ( 138A1  +  71B1  +  71B2  +  33A2  )
 NUMBER OF CORE ORBITALS:           4   (   2A1  +   1B1  +   1B2  +   0A2  )
 NUMBER OF VALENCE ORBITALS:       10   (   5A1  +   2B1  +   2B2  +   1A2  )


 NUCLEAR REPULSION ENERGY   29.53547224

 EXTRA SYMMETRY OF AOS IN SYMMETRY 1:   1 1 1 1 1 1 1 1 1 1   1 1 1 1 1 1 1 1 1 1   1 1 1 1 1 1 1 1 1 1   1 1 1 1 1 1 1 1 1 1
                                        1 1 1 1 1 1 1 1 1 1   1 1 1 2 1 2 1 2 1 2   1 2 1 2 1 2 1 2 1 2   1 2 1 2 1 2 1 2 1 2
                                        1 2 1 2 1 2 1 2 1 2   1 2 1 2 1 3 2 1 3 2   1 3 2 1 1 1 1 1 1 1   1 1 1 1 1 1 1 1 1 1
                                        1 1 1 1 1 1 1 2 1 2   1 2 1 2 1 2 1 2
 EXTRA SYMMETRY OF AOS IN SYMMETRY 2:   1 1 1 1 1 1 1 1 1 1   1 1 1 1 1 1 1 1 1 1   1 1 1 1 1 1 1 1 1 1   1 1 1 1 1 1 1 1 1 1
                                        1 2 1 2 1 2 1 2 1 2   1 2 1 2 1 1 1 1 1 1   1 1 1 1 1 1 1 1 2 1   2
 EXTRA SYMMETRY OF AOS IN SYMMETRY 3:   1 1 1 1 1 1 1 1 1 1   1 1 1 1 1 1 1 1 1 1   1 1 1 1 1 1 1 1 1 1   1 1 1 1 1 1 1 1 1 1
                                        1 2 1 2 1 2 1 2 1 2   1 2 1 2 1 1 1 1 1 1   1 1 1 1 1 1 1 1 2 1   2
 EXTRA SYMMETRY OF AOS IN SYMMETRY 4:   1 1 1 1 1 1 1 1 1 1   1 1 1 1 1 1 1 1 1 1   1 1 2 1 2 1 2 1 1 1   1 1 1

 Eigenvalues of metric

         1 0.880E-06 0.939E-06 0.189E-05 0.903E-05 0.951E-05 0.122E-04 0.262E-04 0.363E-04
         2 0.954E-06 0.982E-06 0.935E-05 0.299E-03 0.471E-03 0.163E-02 0.217E-02 0.299E-02
         3 0.954E-06 0.982E-06 0.935E-05 0.299E-03 0.471E-03 0.163E-02 0.217E-02 0.299E-02
         4 0.951E-05 0.307E-03 0.302E-02 0.107E-01 0.287E-01 0.528E-01 0.876E-01 0.105E+00


 Contracted 2-electron integrals neglected if value below      1.0D-13
 AO integral compression algorithm  1   Integral accuracy      1.0D-13

     936.378 MB (compressed) written to integral file ( 31.1%)

     Node minimum: 22.282 MB, node maximum: 109.314 MB


 NUMBER OF SORTED TWO-ELECTRON INTEGRALS:   13592913.     BUFFER LENGTH:  32768
 NUMBER OF SEGMENTS:   1  SEGMENT LENGTH:   13592913      RECORD LENGTH: 524288

 Memory used in sort:      14.15 MW

 SORT1 READ   375719576. AND WROTE     5483677. INTEGRALS IN     16 RECORDS. CPU TIME:     7.62 SEC, REAL TIME:     9.22 SEC
 SORT2 READ   125772589. AND WROTE   312994044. INTEGRALS IN   3358 RECORDS. CPU TIME:     0.77 SEC, REAL TIME:     1.12 SEC

 Node minimum:    13561530.  Node maximum:    13694643. integrals

 OPERATOR DM      FOR CENTER  0  COORDINATES:    0.000000    0.000000    0.000000


 **********************************************************************************************************************************
 DATASETS  * FILE   NREC   LENGTH (MB)   RECORD NAMES
              1      19       21.20       500      610      700      900      950      970     1000      129      960     1100   
                                          VAR    BASINP    GEOM    SYMINP    ZMAT    AOBASIS   BASIS     P2S    ABASIS      S 
                                         1400     1410     1420     1200     1210     1080     1600     1650     1700   
                                           T        V       ECP      H0       H01     AOSYM     SMH    MOLCAS    OPER   

              2       4        3.66       700     1000      520     2100   
                                         GEOM     BASIS   MCVARS     RHF  

 PROGRAMS   *        TOTAL       INT  RCCSD(T)       RHF       INT
 CPU TIMES  *       250.05     28.14    189.98      2.75     28.59
 REAL TIME  *       391.14 SEC
 DISK USED  *        17.46 GB      
 SF USED    *         2.74 GB      
 GA USED    *         0.00 MB       (max)       0.00 MB       (current)
 **********************************************************************************************************************************


 PROGRAM * RHF-SCF (OPEN SHELL)       Authors: W. Meyer, H.-J. Werner


 NUMBER OF ELECTRONS:      13+   11-    SPACE SYMMETRY=2    SPIN SYMMETRY: Triplet 
 CONVERGENCE THRESHOLDS:    1.00E-05 (Density)    1.00E-07 (Energy)
 MAX. NUMBER OF ITERATIONS:       60
 INTERPOLATION TYPE:            DIIS
 INTERPOLATION STEPS:              2 (START)      1 (STEP)
 LEVEL SHIFTS:                 -0.60 (CLOSED) -0.30 (OPEN) 

 Number of closed-shell orbitals:   11 (   5   2   3   1 )
 Number of open-shell orbitals:      2 (   1   1   0   0 )


 Molecular orbitals read from record     2100.2  Type=RHF/CANONICAL (state 1.2)

 Molecular orbital dump at record        2100.2

 ITERATION    DDIFF          GRAD             ENERGY        2-EL.EN.            DIPOLE MOMENTS         DIIS   ORB.
    1      0.000D+00      0.000D+00      -142.55975796    280.036102    0.00000    0.00000   -2.30403    0    start
    2      0.000D+00      0.181D-02      -142.56012910    279.989468    0.00000    0.00000   -2.29869    1    diag,B
    3      0.388D-03      0.149D-03      -142.56020460    280.003814    0.00000    0.00000   -2.29354    2    diag,B
    4      0.158D-03      0.787D-04      -142.56024696    279.990515    0.00000    0.00000   -2.28981    3    diag,B
    5      0.951D-04      0.467D-04      -142.56026850    279.995954    0.00000    0.00000   -2.28610    4    diag,B
    6      0.644D-04      0.276D-04      -142.56028038    279.994899    0.00000    0.00000   -2.28251    5    diag,B
    7      0.551D-04      0.121D-04      -142.56028279    279.996186    0.00000    0.00000   -2.28092    6    diag,B
    8      0.247D-04      0.502D-05      -142.56028314    279.996293    0.00000    0.00000   -2.28059    7    orth
    9      0.108D-04      0.266D-05      -142.56028325    279.996359    0.00000    0.00000   -2.28054    8    diag,B
   10      0.614D-05      0.188D-05      -142.56028332    279.996213    0.00000    0.00000   -2.28057    9    diag,B
   11      0.287D-05      0.148D-05      -142.56028337    279.996080    0.00000    0.00000   -2.28062    0    orth

 Final alpha occupancy:   6   3   3   1
 Final beta  occupancy:   5   2   3   1

 !RHF STATE 1.2 Energy               -142.560283369903
 Nuclear energy                        29.53547224
 One-electron energy                 -312.09379540
 Two-electron energy                  139.99803979
 Virial quotient                       -2.36695868
 !RHF STATE 1.2 Dipole moment           0.00000000     0.00000000    -2.28062347
 Dipole moment /Debye                   0.00000000     0.00000000    -5.79638699

 Orbital energies:

         1.1          2.1          3.1          4.1          5.1          6.1          7.1          8.1
     -3.982012    -2.562751    -1.151713    -0.467674    -0.454280    -0.443052    -0.013553     0.032251

         1.2          2.2          3.2          4.2          5.2
     -2.559272    -0.483498    -0.513967     0.022073     0.078096

         1.3          2.3          3.3          4.3          5.3
     -2.559050    -0.508811    -0.386708     0.023022     0.079517

         1.4          2.4          3.4
     -0.454546     0.093933     0.314711

 HOMO      3.3    -0.386708 =     -10.5229eV
 LUMO      7.1    -0.013553 =      -0.3688eV
 LUMO-HOMO         0.373155 =      10.1541eV


 **********************************************************************************************************************************
 DATASETS  * FILE   NREC   LENGTH (MB)   RECORD NAMES
              1      19       21.25       500      610      700      900      950      970     1000      129      960     1100   
                                          VAR    BASINP    GEOM    SYMINP    ZMAT    AOBASIS   BASIS     P2S    ABASIS      S 
                                         1400     1410     1420     1200     1210     1080     1600     1650     1700   
                                           T        V       ECP      H0       H01     AOSYM     SMH    MOLCAS    OPER   

              2       4        3.66       700     1000      520     2100   
                                         GEOM     BASIS   MCVARS     RHF  

 PROGRAMS   *        TOTAL       RHF       INT  RCCSD(T)       RHF       INT
 CPU TIMES  *       251.29      1.24     28.14    189.98      2.75     28.59
 REAL TIME  *       392.56 SEC
 DISK USED  *        17.46 GB      
 SF USED    *         2.74 GB      
 GA USED    *         0.00 MB       (max)       0.00 MB       (current)
 **********************************************************************************************************************************
 SETTING SCF(2)         =      -142.56028337  AU                              
 SETTING _CC_NORM_MAX   =         2.00000000                                  


 PROGRAM * CCSD (Restricted open-shell coupled cluster)     Authors: C. Hampel, H.-J. Werner, 1991, M. Deegan, P.J. Knowles, 1992


 Convergence thresholds:  THRVAR = 1.00D-08  THRDEN = 1.00D-06

 CCSD(T)     terms to be evaluated (factor= 1.000)


 Number of closed-shell orbitals:  11 (   5   2   3   1 )
 Number of active  orbitals:        2 (   1   1   0   0 )
 Number of external orbitals:     300 ( 132  68  68  32 )

 Memory could be reduced to 163.04 Mwords without degradation in triples

 Number of N-1 electron functions:              24
 Number of N-2 electron functions:             276
 Number of singly external CSFs:              2280
 Number of doubly external CSFs:           4894910
 Total number of CSFs:                     4897190

 Molecular orbitals read from record     2100.2  Type=RHF/CANONICAL (state 1.2)

 Integral transformation finished. Total CPU:   5.45 sec, npass=  1  Memory used:  15.00 MW

 Starting RMP2 calculation

 Wavefunction is spin-projected

 ITER.      SQ.NORM     CORR.ENERGY   TOTAL ENERGY   ENERGY CHANGE        DEN1      VAR(S)    VAR(P)  DIIS     TIME
   1      1.18232177    -0.95659487  -143.51687824    -0.95659487    -0.00161833  0.96D-05  0.57D-03  1  1     8.29
   2      1.18371285    -0.95831422  -143.51859759    -0.00171935    -0.00000541  0.24D-06  0.29D-05  2  2    10.81
   3      1.18379075    -0.95836299  -143.51864636    -0.00004877    -0.00000004  0.95D-08  0.18D-07  3  3    12.92
   4      1.18379278    -0.95836321  -143.51864658    -0.00000023    -0.00000000  0.24D-09  0.16D-09  4  4    16.03

 Norm of t1 vector:      0.04116164      S-energy:    -0.00570650      T1 diagnostic:  0.00047788
 Norm of t2 vector:      0.42673001      P-energy:    -0.95265672
                                         Alpha-Beta:  -0.67306626
                                         Alpha-Alpha: -0.15957922
                                         Beta-Beta:   -0.12001124

 Spin contamination <S**2-Sz**2-Sz>     0.00000000
  Reference energy                   -142.560283369903
  RHF-RMP2 correlation energy          -0.958363214497
 !RHF-RMP2 energy                    -143.518646584401
 (NB above energy spin projected)

 Starting RCCSD calculation

 ITER.      SQ.NORM     CORR.ENERGY   TOTAL ENERGY   ENERGY CHANGE        DEN1      VAR(S)    VAR(P)  DIIS     TIME
   1      1.16808869    -0.91467480  -143.47495817    -0.91467480    -0.02285225  0.86D-02  0.31D-02  1  1    25.01
   2      1.18426218    -0.93351755  -143.49380092    -0.01884274    -0.00275795  0.61D-03  0.87D-03  2  2    33.68
   3      1.19843723    -0.93640292  -143.49668629    -0.00288537    -0.00100085  0.11D-02  0.10D-03  3  3    41.81
   4      1.21118975    -0.93870653  -143.49898990    -0.00230360    -0.00045494  0.41D-03  0.71D-04  4  4    50.17
   5      1.23547463    -0.94141684  -143.50170021    -0.00271031    -0.00013892  0.11D-03  0.27D-04  5  5    57.67
   6      1.25205403    -0.94258103  -143.50286440    -0.00116420    -0.00004167  0.26D-04  0.11D-04  6  6    66.12
   7      1.26256526    -0.94321215  -143.50349552    -0.00063112    -0.00001150  0.69D-05  0.33D-05  6  1    73.70
   8      1.26522897    -0.94334217  -143.50362554    -0.00013002    -0.00000244  0.13D-05  0.74D-06  6  2    81.89
   9      1.26609453    -0.94336075  -143.50364412    -0.00001857    -0.00000053  0.27D-06  0.18D-06  6  4    89.84
  10      1.26595985    -0.94335890  -143.50364227     0.00000185    -0.00000010  0.66D-07  0.27D-07  6  3    99.08
  11      1.26595916    -0.94335466  -143.50363803     0.00000424    -0.00000005  0.32D-07  0.12D-07  6  4   108.69
  12      1.26595296    -0.94335550  -143.50363887    -0.00000084    -0.00000002  0.15D-07  0.22D-08  6  5   116.52
  13      1.26591248    -0.94335234  -143.50363571     0.00000316    -0.00000001  0.60D-08  0.10D-08  6  2   125.38
  14      1.26592152    -0.94335339  -143.50363676    -0.00000105    -0.00000000  0.29D-08  0.47D-09  6  6   133.85
  15      1.26590785    -0.94335243  -143.50363580     0.00000096    -0.00000000  0.15D-08  0.29D-09  6  3   141.48

 Norm of t1 vector:      0.26152321      S-energy:    -0.00625090      T1 diagnostic:  0.03692137
                                                                       D1 diagnostic:  0.11312463
 Norm of t2 vector:      0.44442486      P-energy:    -0.93710153
                                         Alpha-Beta:  -0.68563633
                                         Alpha-Alpha: -0.14090388
                                         Beta-Beta:   -0.11056132

 Singles amplitudes (print threshold =  0.500E-01):

         I         SYM. A    A   T(IA) [Alpha-Alpha]

         6         1         2     -0.06980361
 
         I         SYM. A    A   T(IA) [Beta-Beta]

         4         1         1     -0.15898614
         8         2         1      0.12890213

 Doubles amplitudes (print threshold =  0.500E-01):

         I         J         SYM. A    SYM. B    A         B      T(IJ, AB) [Beta-Beta]

         8         4         1         2         1         1      0.07544167
         8         4         2         1         1         1     -0.07544167

 Spin contamination <S**2-Sz**2-Sz>     0.00000000

 Memory could be reduced to 164.20 Mwords without degradation in triples
 

  Correlated core orbitals:             1.1       2.1       1.2       1.3
  Orbital energies:                    -4.0131   -2.6317   -2.5804   -2.5820
 
  RCCSD core-core energy               -0.119755570101
  RCCSD core-valence energy            -0.262807973288
  RCCSD valence correlation energy     -0.560788885712
 

 RESULTS
 =======

  Reference energy                   -142.560283369903
  RCCSD singles energy                 -0.006250899464
  RCCSD pair energy                    -0.937101529638
  RCCSD correlation energy             -0.943352429102
  Triples (T) contribution             -0.039704245550
  Total correlation energy             -0.983056674651
 
  RHF-RCCSD energy                   -143.503635799005
  RHF-RCCSD[T] energy                -143.547636329255
  RHF-RCCSD-T energy                 -143.542964822993
 !RHF-RCCSD(T) energy                -143.543340044555

 Program statistics:

 Available memory in ccsd:               511998418
 Min. memory needed in ccsd:              14064756
 Max. memory used in ccsd:                20157915
 Max. memory used in cckext:              15861012 (15 integral passes)
 Max. memory used in cckint:              15004909 ( 1 integral passes)



 **********************************************************************************************************************************
 DATASETS  * FILE   NREC   LENGTH (MB)   RECORD NAMES
              1      19       21.25       500      610      700      900      950      970     1000      129      960     1100   
                                          VAR    BASINP    GEOM    SYMINP    ZMAT    AOBASIS   BASIS     P2S    ABASIS      S 
                                         1400     1410     1420     1200     1210     1080     1600     1650     1700   
                                           T        V       ECP      H0       H01     AOSYM     SMH    MOLCAS    OPER   

              2       4        3.66       700     1000      520     2100   
                                         GEOM     BASIS   MCVARS     RHF  

 PROGRAMS   *        TOTAL  RCCSD(T)       RHF       INT  RCCSD(T)       RHF       INT
 CPU TIMES  *       468.27    216.90      1.24     28.14    189.98      2.75     28.59
 REAL TIME  *       727.32 SEC
 DISK USED  *        17.46 GB      
 SF USED    *         2.74 GB      
 GA USED    *         0.00 MB       (max)       0.00 MB       (current)
 **********************************************************************************************************************************
 SETTING CCSD(2)        =      -143.54334004  AU                              

 DO I                   =         3.00000000   
 SETTING Z(3)           =         1.88500000                                  

Geometry recognized as XYZ



 Recomputing integrals since geometry changed


 PROGRAM * SEWARD (Integral evaluation for generally contracted gaussian basis sets)     Author: Roland Lindh, 1990

 Geometry written to block  1 of record 700


 Point group  C2v 



 ATOMIC COORDINATES

 NR  ATOM    CHARGE       X              Y              Z

   1  PD     18.00    0.000000000    0.000000000    0.000000000
   2  O       6.00    0.000000000    0.000000000    3.562133745

 Bond lengths in Bohr (Angstrom)

 1-2  3.562133745
     ( 1.885000000)

 NUCLEAR CHARGE:                   24
 NUMBER OF PRIMITIVE AOS:         370
 NUMBER OF SYMMETRY AOS:          313
 NUMBER OF CONTRACTIONS:          313   ( 138A1  +  71B1  +  71B2  +  33A2  )
 NUMBER OF CORE ORBITALS:           4   (   2A1  +   1B1  +   1B2  +   0A2  )
 NUMBER OF VALENCE ORBITALS:       10   (   5A1  +   2B1  +   2B2  +   1A2  )


 NUCLEAR REPULSION ENERGY   30.31890651

 EXTRA SYMMETRY OF AOS IN SYMMETRY 1:   1 1 1 1 1 1 1 1 1 1   1 1 1 1 1 1 1 1 1 1   1 1 1 1 1 1 1 1 1 1   1 1 1 1 1 1 1 1 1 1
                                        1 1 1 1 1 1 1 1 1 1   1 1 1 2 1 2 1 2 1 2   1 2 1 2 1 2 1 2 1 2   1 2 1 2 1 2 1 2 1 2
                                        1 2 1 2 1 2 1 2 1 2   1 2 1 2 1 3 2 1 3 2   1 3 2 1 1 1 1 1 1 1   1 1 1 1 1 1 1 1 1 1
                                        1 1 1 1 1 1 1 2 1 2   1 2 1 2 1 2 1 2
 EXTRA SYMMETRY OF AOS IN SYMMETRY 2:   1 1 1 1 1 1 1 1 1 1   1 1 1 1 1 1 1 1 1 1   1 1 1 1 1 1 1 1 1 1   1 1 1 1 1 1 1 1 1 1
                                        1 2 1 2 1 2 1 2 1 2   1 2 1 2 1 1 1 1 1 1   1 1 1 1 1 1 1 1 2 1   2
 EXTRA SYMMETRY OF AOS IN SYMMETRY 3:   1 1 1 1 1 1 1 1 1 1   1 1 1 1 1 1 1 1 1 1   1 1 1 1 1 1 1 1 1 1   1 1 1 1 1 1 1 1 1 1
                                        1 2 1 2 1 2 1 2 1 2   1 2 1 2 1 1 1 1 1 1   1 1 1 1 1 1 1 1 2 1   2
 EXTRA SYMMETRY OF AOS IN SYMMETRY 4:   1 1 1 1 1 1 1 1 1 1   1 1 1 1 1 1 1 1 1 1   1 1 2 1 2 1 2 1 1 1   1 1 1

 Eigenvalues of metric

         1 0.870E-06 0.933E-06 0.188E-05 0.903E-05 0.951E-05 0.119E-04 0.260E-04 0.358E-04
         2 0.953E-06 0.982E-06 0.934E-05 0.298E-03 0.471E-03 0.163E-02 0.217E-02 0.299E-02
         3 0.953E-06 0.982E-06 0.934E-05 0.298E-03 0.471E-03 0.163E-02 0.217E-02 0.299E-02
         4 0.951E-05 0.307E-03 0.302E-02 0.107E-01 0.287E-01 0.528E-01 0.871E-01 0.105E+00


 Contracted 2-electron integrals neglected if value below      1.0D-13
 AO integral compression algorithm  1   Integral accuracy      1.0D-13

     946.602 MB (compressed) written to integral file ( 31.5%)

     Node minimum: 23.069 MB, node maximum: 109.314 MB


 NUMBER OF SORTED TWO-ELECTRON INTEGRALS:   13592913.     BUFFER LENGTH:  32768
 NUMBER OF SEGMENTS:   1  SEGMENT LENGTH:   13592913      RECORD LENGTH: 524288

 Memory used in sort:      14.15 MW

 SORT1 READ   375719576. AND WROTE     5553162. INTEGRALS IN     16 RECORDS. CPU TIME:     8.86 SEC, REAL TIME:    10.41 SEC
 SORT2 READ   127330145. AND WROTE   312994044. INTEGRALS IN   2484 RECORDS. CPU TIME:     6.45 SEC, REAL TIME:     6.77 SEC

 Node minimum:    13561530.  Node maximum:    13694643. integrals

 OPERATOR DM      FOR CENTER  0  COORDINATES:    0.000000    0.000000    0.000000


 **********************************************************************************************************************************
 DATASETS  * FILE   NREC   LENGTH (MB)   RECORD NAMES
              1      19       21.20       500      610      700      900      950      970     1000      129      960     1100   
                                          VAR    BASINP    GEOM    SYMINP    ZMAT    AOBASIS   BASIS     P2S    ABASIS      S 
                                         1400     1410     1420     1200     1210     1080     1600     1650     1700   
                                           T        V       ECP      H0       H01     AOSYM     SMH    MOLCAS    OPER   

              2       4        3.66       700     1000      520     2100   
                                         GEOM     BASIS   MCVARS     RHF  

 PROGRAMS   *        TOTAL       INT  RCCSD(T)       RHF       INT  RCCSD(T)       RHF       INT
 CPU TIMES  *       503.26     34.96    216.90      1.24     28.14    189.98      2.75     28.59
 REAL TIME  *       765.68 SEC
 DISK USED  *        17.63 GB      
 SF USED    *         2.74 GB      
 GA USED    *         0.00 MB       (max)       0.00 MB       (current)
 **********************************************************************************************************************************


 PROGRAM * RHF-SCF (OPEN SHELL)       Authors: W. Meyer, H.-J. Werner


 NUMBER OF ELECTRONS:      13+   11-    SPACE SYMMETRY=2    SPIN SYMMETRY: Triplet 
 CONVERGENCE THRESHOLDS:    1.00E-05 (Density)    1.00E-07 (Energy)
 MAX. NUMBER OF ITERATIONS:       60
 INTERPOLATION TYPE:            DIIS
 INTERPOLATION STEPS:              2 (START)      1 (STEP)
 LEVEL SHIFTS:                 -0.60 (CLOSED) -0.30 (OPEN) 

 Number of closed-shell orbitals:   11 (   5   2   3   1 )
 Number of open-shell orbitals:      2 (   1   1   0   0 )


 Molecular orbitals read from record     2100.2  Type=RHF/CANONICAL (state 1.2)

 Molecular orbital dump at record        2100.2

 ITERATION    DDIFF          GRAD             ENERGY        2-EL.EN.            DIPOLE MOMENTS         DIIS   ORB.
    1      0.000D+00      0.000D+00      -142.55719822    281.595441    0.00000    0.00000   -2.20936    0    start
    2      0.000D+00      0.198D-02      -142.55765017    281.543834    0.00000    0.00000   -2.20527    1    diag,B
    3      0.430D-03      0.165D-03      -142.55774489    281.557794    0.00000    0.00000   -2.19970    2    diag,B
    4      0.165D-03      0.875D-04      -142.55779904    281.541577    0.00000    0.00000   -2.19577    3    diag,B
    5      0.103D-03      0.526D-04      -142.55782712    281.546464    0.00000    0.00000   -2.19151    4    diag,B
    6      0.732D-04      0.315D-04      -142.55784345    281.543896    0.00000    0.00000   -2.18707    5    diag,B
    7      0.659D-04      0.141D-04      -142.55784695    281.544750    0.00000    0.00000   -2.18498    6    diag,B
    8      0.304D-04      0.613D-05      -142.55784752    281.544621    0.00000    0.00000   -2.18443    7    orth
    9      0.129D-04      0.324D-05      -142.55784769    281.544616    0.00000    0.00000   -2.18428    8    diag,B
   10      0.816D-05      0.207D-05      -142.55784777    281.544372    0.00000    0.00000   -2.18429    9    diag,B
   11      0.383D-05      0.144D-05      -142.55784781    281.544191    0.00000    0.00000   -2.18437    0    orth

 Final alpha occupancy:   6   3   3   1
 Final beta  occupancy:   5   2   3   1

 !RHF STATE 1.2 Energy               -142.557847809338
 Nuclear energy                        30.31890651
 One-electron energy                 -313.64884992
 Two-electron energy                  140.77209560
 Virial quotient                       -2.36551130
 !RHF STATE 1.2 Dipole moment           0.00000000     0.00000000    -2.18436718
 Dipole moment /Debye                   0.00000000     0.00000000    -5.55174393

 Orbital energies:

         1.1          2.1          3.1          4.1          5.1          6.1          7.1          8.1
     -3.979559    -2.561405    -1.160987    -0.479034    -0.451416    -0.429667    -0.011517     0.032840

         1.2          2.2          3.2          4.2          5.2
     -2.556399    -0.483133    -0.516337     0.022438     0.078861

         1.3          2.3          3.3          4.3          5.3
     -2.556126    -0.514271    -0.385350     0.023398     0.080351

         1.4          2.4          3.4
     -0.451603     0.094358     0.315746

 HOMO      3.3    -0.385350 =     -10.4859eV
 LUMO      7.1    -0.011517 =      -0.3134eV
 LUMO-HOMO         0.373832 =      10.1725eV


 **********************************************************************************************************************************
 DATASETS  * FILE   NREC   LENGTH (MB)   RECORD NAMES
              1      19       21.25       500      610      700      900      950      970     1000      129      960     1100   
                                          VAR    BASINP    GEOM    SYMINP    ZMAT    AOBASIS   BASIS     P2S    ABASIS      S 
                                         1400     1410     1420     1200     1210     1080     1600     1650     1700   
                                           T        V       ECP      H0       H01     AOSYM     SMH    MOLCAS    OPER   

              2       4        3.66       700     1000      520     2100   
                                         GEOM     BASIS   MCVARS     RHF  

 PROGRAMS   *        TOTAL       RHF       INT  RCCSD(T)       RHF       INT  RCCSD(T)       RHF       INT
 CPU TIMES  *       504.66      1.40     34.96    216.90      1.24     28.14    189.98      2.75     28.59
 REAL TIME  *       767.27 SEC
 DISK USED  *        17.63 GB      
 SF USED    *         2.74 GB      
 GA USED    *         0.00 MB       (max)       0.00 MB       (current)
 **********************************************************************************************************************************
 SETTING SCF(3)         =      -142.55784781  AU                              
 SETTING _CC_NORM_MAX   =         2.00000000                                  


 PROGRAM * CCSD (Restricted open-shell coupled cluster)     Authors: C. Hampel, H.-J. Werner, 1991, M. Deegan, P.J. Knowles, 1992


 Convergence thresholds:  THRVAR = 1.00D-08  THRDEN = 1.00D-06

 CCSD(T)     terms to be evaluated (factor= 1.000)


 Number of closed-shell orbitals:  11 (   5   2   3   1 )
 Number of active  orbitals:        2 (   1   1   0   0 )
 Number of external orbitals:     300 ( 132  68  68  32 )

 Memory could be reduced to 163.04 Mwords without degradation in triples

 Number of N-1 electron functions:              24
 Number of N-2 electron functions:             276
 Number of singly external CSFs:              2280
 Number of doubly external CSFs:           4894910
 Total number of CSFs:                     4897190

 Molecular orbitals read from record     2100.2  Type=RHF/CANONICAL (state 1.2)

 Integral transformation finished. Total CPU:   5.86 sec, npass=  1  Memory used:  15.00 MW

 Starting RMP2 calculation

 Wavefunction is spin-projected

 ITER.      SQ.NORM     CORR.ENERGY   TOTAL ENERGY   ENERGY CHANGE        DEN1      VAR(S)    VAR(P)  DIIS     TIME
   1      1.18372469    -0.96117127  -143.51901908    -0.96117127    -0.00163375  0.11D-04  0.58D-03  1  1     8.89
   2      1.18513146    -0.96290763  -143.52075544    -0.00173636    -0.00000566  0.29D-06  0.30D-05  2  2    12.21
   3      1.18521129    -0.96295739  -143.52080520    -0.00004976    -0.00000004  0.11D-07  0.19D-07  3  3    14.37
   4      1.18521350    -0.96295768  -143.52080548    -0.00000029    -0.00000000  0.27D-09  0.18D-09  4  4    16.85

 Norm of t1 vector:      0.04143997      S-energy:    -0.00565551      T1 diagnostic:  0.00051907
 Norm of t2 vector:      0.42836460      P-energy:    -0.95730216
                                         Alpha-Beta:  -0.67549470
                                         Alpha-Alpha: -0.16041212
                                         Beta-Beta:   -0.12139533

 Spin contamination <S**2-Sz**2-Sz>     0.00000000
  Reference energy                   -142.557847809339
  RHF-RMP2 correlation energy          -0.962957675510
 !RHF-RMP2 energy                    -143.520805484849
 (NB above energy spin projected)

 Starting RCCSD calculation

 ITER.      SQ.NORM     CORR.ENERGY   TOTAL ENERGY   ENERGY CHANGE        DEN1      VAR(S)    VAR(P)  DIIS     TIME
   1      1.16876388    -0.91721471  -143.47506252    -0.91721471    -0.02365032  0.90D-02  0.33D-02  1  1    25.24
   2      1.18543267    -0.93655900  -143.49440681    -0.01934429    -0.00288471  0.68D-03  0.90D-03  2  2    33.96
   3      1.20049093    -0.93955897  -143.49740678    -0.00299997    -0.00107870  0.11D-02  0.11D-03  3  3    41.41
   4      1.21458154    -0.94203137  -143.49987917    -0.00247240    -0.00050228  0.45D-03  0.78D-04  4  4    49.06
   5      1.24278632    -0.94509515  -143.50294296    -0.00306379    -0.00015140  0.12D-03  0.28D-04  5  5    56.27
   6      1.26197701    -0.94640529  -143.50425310    -0.00131014    -0.00004374  0.27D-04  0.11D-04  6  6    63.46
   7      1.27358720    -0.94708905  -143.50493686    -0.00068375    -0.00001146  0.71D-05  0.31D-05  6  1    70.72
   8      1.27622103    -0.94721250  -143.50506031    -0.00012345    -0.00000230  0.13D-05  0.66D-06  6  2    77.20
   9      1.27705411    -0.94722961  -143.50507742    -0.00001711    -0.00000049  0.27D-06  0.15D-06  6  4    84.41
  10      1.27690289    -0.94722645  -143.50507426     0.00000316    -0.00000010  0.72D-07  0.23D-07  6  3    91.59
  11      1.27693283    -0.94722390  -143.50507171     0.00000255    -0.00000005  0.36D-07  0.11D-07  6  4    97.99
  12      1.27690551    -0.94722283  -143.50507064     0.00000107    -0.00000002  0.17D-07  0.22D-08  6  2   104.50
  13      1.27688847    -0.94722069  -143.50506850     0.00000214    -0.00000001  0.66D-08  0.12D-08  6  5   112.40
  14      1.27691791    -0.94722344  -143.50507125    -0.00000275    -0.00000000  0.31D-08  0.48D-09  6  6   119.88
  15      1.27692297    -0.94722348  -143.50507129    -0.00000004    -0.00000000  0.14D-08  0.20D-09  6  1   126.92

 Norm of t1 vector:      0.27482598      S-energy:    -0.00619381      T1 diagnostic:  0.03886177
                                                                       D1 diagnostic:  0.11194633
 Norm of t2 vector:      0.44876904      P-energy:    -0.94102967
                                         Alpha-Beta:  -0.68735073
                                         Alpha-Alpha: -0.14134593
                                         Beta-Beta:   -0.11233301

 Singles amplitudes (print threshold =  0.500E-01):

         I         SYM. A    A   T(IA) [Alpha-Alpha]

         6         1         2     -0.07504836
 
         I         SYM. A    A   T(IA) [Beta-Beta]

         4         1         1     -0.15805265
         8         2         1      0.14945413

 Doubles amplitudes (print threshold =  0.500E-01):

         I         J         SYM. A    SYM. B    A         B      T(IJ, AB) [Beta-Beta]

         8         4         1         2         1         1      0.08182172
         8         4         2         1         1         1     -0.08182172

 Spin contamination <S**2-Sz**2-Sz>     0.00000000

 Memory could be reduced to 164.20 Mwords without degradation in triples
 

  Correlated core orbitals:             1.1       2.1       1.2       1.3
  Orbital energies:                    -4.0101   -2.6286   -2.5772   -2.5785
 
  RCCSD core-core energy               -0.119607755344
  RCCSD core-valence energy            -0.263131834312
  RCCSD valence correlation energy     -0.564483890382
 

 RESULTS
 =======

  Reference energy                   -142.557847809339
  RCCSD singles energy                 -0.006193811233
  RCCSD pair energy                    -0.941029668804
  RCCSD correlation energy             -0.947223480037
  Triples (T) contribution             -0.040489776302
  Total correlation energy             -0.987713256340
 
  RHF-RCCSD energy                   -143.505071289376
  RHF-RCCSD[T] energy                -143.550179804699
  RHF-RCCSD-T energy                 -143.545249774592
 !RHF-RCCSD(T) energy                -143.545561065678

 Program statistics:

 Available memory in ccsd:               511998418
 Min. memory needed in ccsd:              14064756
 Max. memory used in ccsd:                20157915
 Max. memory used in cckext:              15861012 (15 integral passes)
 Max. memory used in cckint:              15004909 ( 1 integral passes)



 **********************************************************************************************************************************
 DATASETS  * FILE   NREC   LENGTH (MB)   RECORD NAMES
              1      19       21.25       500      610      700      900      950      970     1000      129      960     1100   
                                          VAR    BASINP    GEOM    SYMINP    ZMAT    AOBASIS   BASIS     P2S    ABASIS      S 
                                         1400     1410     1420     1200     1210     1080     1600     1650     1700   
                                           T        V       ECP      H0       H01     AOSYM     SMH    MOLCAS    OPER   

              2       4        3.66       700     1000      520     2100   
                                         GEOM     BASIS   MCVARS     RHF  

 PROGRAMS   *        TOTAL  RCCSD(T)       RHF       INT  RCCSD(T)       RHF       INT  RCCSD(T)       RHF       INT
 CPU TIMES  *       706.01    201.21      1.40     34.96    216.90      1.24     28.14    189.98      2.75     28.59
 REAL TIME  *      1052.23 SEC
 DISK USED  *        17.63 GB      
 SF USED    *         2.74 GB      
 GA USED    *         0.00 MB       (max)       0.00 MB       (current)
 **********************************************************************************************************************************
 SETTING CCSD(3)        =      -143.54556107  AU                              

 DO I                   =         4.00000000   
 SETTING Z(4)           =         1.83500000                                  

Geometry recognized as XYZ



 Recomputing integrals since geometry changed


 PROGRAM * SEWARD (Integral evaluation for generally contracted gaussian basis sets)     Author: Roland Lindh, 1990

 Geometry written to block  1 of record 700


 Point group  C2v 



 ATOMIC COORDINATES

 NR  ATOM    CHARGE       X              Y              Z

   1  PD     18.00    0.000000000    0.000000000    0.000000000
   2  O       6.00    0.000000000    0.000000000    3.467647439

 Bond lengths in Bohr (Angstrom)

 1-2  3.467647439
     ( 1.835000000)

 NUCLEAR CHARGE:                   24
 NUMBER OF PRIMITIVE AOS:         370
 NUMBER OF SYMMETRY AOS:          313
 NUMBER OF CONTRACTIONS:          313   ( 138A1  +  71B1  +  71B2  +  33A2  )
 NUMBER OF CORE ORBITALS:           4   (   2A1  +   1B1  +   1B2  +   0A2  )
 NUMBER OF VALENCE ORBITALS:       10   (   5A1  +   2B1  +   2B2  +   1A2  )


 NUCLEAR REPULSION ENERGY   31.14503476

 EXTRA SYMMETRY OF AOS IN SYMMETRY 1:   1 1 1 1 1 1 1 1 1 1   1 1 1 1 1 1 1 1 1 1   1 1 1 1 1 1 1 1 1 1   1 1 1 1 1 1 1 1 1 1
                                        1 1 1 1 1 1 1 1 1 1   1 1 1 2 1 2 1 2 1 2   1 2 1 2 1 2 1 2 1 2   1 2 1 2 1 2 1 2 1 2
                                        1 2 1 2 1 2 1 2 1 2   1 2 1 2 1 3 2 1 3 2   1 3 2 1 1 1 1 1 1 1   1 1 1 1 1 1 1 1 1 1
                                        1 1 1 1 1 1 1 2 1 2   1 2 1 2 1 2 1 2
 EXTRA SYMMETRY OF AOS IN SYMMETRY 2:   1 1 1 1 1 1 1 1 1 1   1 1 1 1 1 1 1 1 1 1   1 1 1 1 1 1 1 1 1 1   1 1 1 1 1 1 1 1 1 1
                                        1 2 1 2 1 2 1 2 1 2   1 2 1 2 1 1 1 1 1 1   1 1 1 1 1 1 1 1 2 1   2
 EXTRA SYMMETRY OF AOS IN SYMMETRY 3:   1 1 1 1 1 1 1 1 1 1   1 1 1 1 1 1 1 1 1 1   1 1 1 1 1 1 1 1 1 1   1 1 1 1 1 1 1 1 1 1
                                        1 2 1 2 1 2 1 2 1 2   1 2 1 2 1 1 1 1 1 1   1 1 1 1 1 1 1 1 2 1   2
 EXTRA SYMMETRY OF AOS IN SYMMETRY 4:   1 1 1 1 1 1 1 1 1 1   1 1 1 1 1 1 1 1 1 1   1 1 2 1 2 1 2 1 1 1   1 1 1

 Eigenvalues of metric

         1 0.859E-06 0.925E-06 0.187E-05 0.900E-05 0.951E-05 0.116E-04 0.257E-04 0.353E-04
         2 0.952E-06 0.981E-06 0.933E-05 0.297E-03 0.471E-03 0.162E-02 0.217E-02 0.298E-02
         3 0.952E-06 0.981E-06 0.933E-05 0.297E-03 0.471E-03 0.162E-02 0.217E-02 0.298E-02
         4 0.951E-05 0.307E-03 0.302E-02 0.107E-01 0.287E-01 0.528E-01 0.865E-01 0.105E+00


 Contracted 2-electron integrals neglected if value below      1.0D-13
 AO integral compression algorithm  1   Integral accuracy      1.0D-13

     956.826 MB (compressed) written to integral file ( 31.9%)

     Node minimum: 23.855 MB, node maximum: 109.314 MB


 NUMBER OF SORTED TWO-ELECTRON INTEGRALS:   13592913.     BUFFER LENGTH:  32768
 NUMBER OF SEGMENTS:   1  SEGMENT LENGTH:   13592913      RECORD LENGTH: 524288

 Memory used in sort:      14.15 MW

 SORT1 READ   375719576. AND WROTE     5623353. INTEGRALS IN     17 RECORDS. CPU TIME:    12.41 SEC, REAL TIME:    14.16 SEC
 SORT2 READ   128932594. AND WROTE   312994044. INTEGRALS IN   4830 RECORDS. CPU TIME:     0.90 SEC, REAL TIME:     1.22 SEC

 Node minimum:    13561530.  Node maximum:    13694643. integrals

 OPERATOR DM      FOR CENTER  0  COORDINATES:    0.000000    0.000000    0.000000


 **********************************************************************************************************************************
 DATASETS  * FILE   NREC   LENGTH (MB)   RECORD NAMES
              1      19       21.20       500      610      700      900      950      970     1000      129      960     1100   
                                          VAR    BASINP    GEOM    SYMINP    ZMAT    AOBASIS   BASIS     P2S    ABASIS      S 
                                         1400     1410     1420     1200     1210     1080     1600     1650     1700   
                                           T        V       ECP      H0       H01     AOSYM     SMH    MOLCAS    OPER   

              2       4        3.66       700     1000      520     2100   
                                         GEOM     BASIS   MCVARS     RHF  

 PROGRAMS   *        TOTAL       INT  RCCSD(T)       RHF       INT  RCCSD(T)       RHF       INT  RCCSD(T)       RHF       INT
 CPU TIMES  *       738.75     32.72    201.21      1.40     34.96    216.90      1.24     28.14    189.98      2.75     28.59
 REAL TIME  *      1087.38 SEC
 DISK USED  *        17.78 GB      
 SF USED    *         2.74 GB      
 GA USED    *         0.00 MB       (max)       0.00 MB       (current)
 **********************************************************************************************************************************


 PROGRAM * RHF-SCF (OPEN SHELL)       Authors: W. Meyer, H.-J. Werner


 NUMBER OF ELECTRONS:      13+   11-    SPACE SYMMETRY=2    SPIN SYMMETRY: Triplet 
 CONVERGENCE THRESHOLDS:    1.00E-05 (Density)    1.00E-07 (Energy)
 MAX. NUMBER OF ITERATIONS:       60
 INTERPOLATION TYPE:            DIIS
 INTERPOLATION STEPS:              2 (START)      1 (STEP)
 LEVEL SHIFTS:                 -0.60 (CLOSED) -0.30 (OPEN) 

 Number of closed-shell orbitals:   11 (   5   2   3   1 )
 Number of open-shell orbitals:      2 (   1   1   0   0 )


 Molecular orbitals read from record     2100.2  Type=RHF/CANONICAL (state 1.2)

 Molecular orbital dump at record        2100.2

 ITERATION    DDIFF          GRAD             ENERGY        2-EL.EN.            DIPOLE MOMENTS         DIIS   ORB.
    1      0.000D+00      0.000D+00      -142.55254389    283.211413    0.00000    0.00000   -2.11417    0    start
    2      0.000D+00      0.216D-02      -142.55309741    283.153890    0.00000    0.00000   -2.11175    1    diag,B
    3      0.553D-03      0.184D-03      -142.55321733    283.167047    0.00000    0.00000   -2.10565    2    diag,B
    4      0.174D-03      0.980D-04      -142.55328728    283.147010    0.00000    0.00000   -2.10159    3    diag,B
    5      0.112D-03      0.599D-04      -142.55332475    283.150803    0.00000    0.00000   -2.09666    4    diag,B
    6      0.839D-04      0.364D-04      -142.55334788    283.145809    0.00000    0.00000   -2.09119    5    diag,B
    7      0.803D-04      0.168D-04      -142.55335317    283.145829    0.00000    0.00000   -2.08848    6    diag,B
    8      0.381D-04      0.779D-05      -142.55335417    283.145225    0.00000    0.00000   -2.08761    7    orth
    9      0.160D-04      0.428D-05      -142.55335449    283.145013    0.00000    0.00000   -2.08731    8    diag,B
   10      0.114D-04      0.253D-05      -142.55335461    283.144572    0.00000    0.00000   -2.08728    9    diag,B
   11      0.546D-05      0.154D-05      -142.55335466    283.144274    0.00000    0.00000   -2.08731    9    diag,B
   12      0.335D-05      0.108D-05      -142.55335469    283.144112    0.00000    0.00000   -2.08736    0    orth

 Final alpha occupancy:   6   3   3   1
 Final beta  occupancy:   5   2   3   1

 !RHF STATE 1.2 Energy               -142.553354686890
 Nuclear energy                        31.14503476
 One-electron energy                 -315.27044565
 Two-electron energy                  141.57205621
 Virial quotient                       -2.36393604
 !RHF STATE 1.2 Dipole moment           0.00000000     0.00000000    -2.08735654
 Dipole moment /Debye                   0.00000000     0.00000000    -5.30518364

 Orbital energies:

         1.1          2.1          3.1          4.1          5.1          6.1          7.1          8.1
     -3.977837    -2.561157    -1.171179    -0.491145    -0.448960    -0.415238    -0.009424     0.033315

         1.2          2.2          3.2          4.2          5.2
     -2.554116    -0.484115    -0.518019     0.022782     0.079562

         1.3          2.3          3.3          4.3          5.3
     -2.553778    -0.521738    -0.383341     0.023756     0.081134

         1.4          2.4          3.4
     -0.449134     0.094781     0.316730

 HOMO      3.3    -0.383341 =     -10.4312eV
 LUMO      7.1    -0.009424 =      -0.2564eV
 LUMO-HOMO         0.373917 =      10.1748eV


 **********************************************************************************************************************************
 DATASETS  * FILE   NREC   LENGTH (MB)   RECORD NAMES
              1      19       21.25       500      610      700      900      950      970     1000      129      960     1100   
                                          VAR    BASINP    GEOM    SYMINP    ZMAT    AOBASIS   BASIS     P2S    ABASIS      S 
                                         1400     1410     1420     1200     1210     1080     1600     1650     1700   
                                           T        V       ECP      H0       H01     AOSYM     SMH    MOLCAS    OPER   

              2       4        3.66       700     1000      520     2100   
                                         GEOM     BASIS   MCVARS     RHF  

 PROGRAMS   *        TOTAL       RHF       INT  RCCSD(T)       RHF       INT  RCCSD(T)       RHF       INT  RCCSD(T)       RHF
 CPU TIMES  *       740.12      1.37     32.72    201.21      1.40     34.96    216.90      1.24     28.14    189.98      2.75
 REAL TIME  *      1088.98 SEC
 DISK USED  *        17.78 GB      
 SF USED    *         2.74 GB      
 GA USED    *         0.00 MB       (max)       0.00 MB       (current)
 **********************************************************************************************************************************
 SETTING SCF(4)         =      -142.55335469  AU                              
 SETTING _CC_NORM_MAX   =         2.00000000                                  


 PROGRAM * CCSD (Restricted open-shell coupled cluster)     Authors: C. Hampel, H.-J. Werner, 1991, M. Deegan, P.J. Knowles, 1992


 Convergence thresholds:  THRVAR = 1.00D-08  THRDEN = 1.00D-06

 CCSD(T)     terms to be evaluated (factor= 1.000)


 Number of closed-shell orbitals:  11 (   5   2   3   1 )
 Number of active  orbitals:        2 (   1   1   0   0 )
 Number of external orbitals:     300 ( 132  68  68  32 )

 Memory could be reduced to 163.04 Mwords without degradation in triples

 Number of N-1 electron functions:              24
 Number of N-2 electron functions:             276
 Number of singly external CSFs:              2280
 Number of doubly external CSFs:           4894910
 Total number of CSFs:                     4897190

 Molecular orbitals read from record     2100.2  Type=RHF/CANONICAL (state 1.2)

 Integral transformation finished. Total CPU:   6.03 sec, npass=  1  Memory used:  15.00 MW

 Starting RMP2 calculation

 Wavefunction is spin-projected

 ITER.      SQ.NORM     CORR.ENERGY   TOTAL ENERGY   ENERGY CHANGE        DEN1      VAR(S)    VAR(P)  DIIS     TIME
   1      1.18558711    -0.96667922  -143.52003391    -0.96667922    -0.00165715  0.13D-04  0.58D-03  1  1     8.05
   2      1.18702193    -0.96844131  -143.52179600    -0.00176209    -0.00000602  0.36D-06  0.32D-05  2  2     9.33
   3      1.18710508    -0.96849271  -143.52184740    -0.00005140    -0.00000005  0.14D-07  0.21D-07  3  3    10.85
   4      1.18710756    -0.96849310  -143.52184779    -0.00000039    -0.00000000  0.33D-09  0.22D-09  4  4    12.08

 Norm of t1 vector:      0.04184451      S-energy:    -0.00559611      T1 diagnostic:  0.00056926
 Norm of t2 vector:      0.43053060      P-energy:    -0.96289699
                                         Alpha-Beta:  -0.67846354
                                         Alpha-Alpha: -0.16139108
                                         Beta-Beta:   -0.12304238

 Spin contamination <S**2-Sz**2-Sz>     0.00000000
  Reference energy                   -142.553354686890
  RHF-RMP2 correlation energy          -0.968493099240
 !RHF-RMP2 energy                    -143.521847786130
 (NB above energy spin projected)

 Starting RCCSD calculation

 ITER.      SQ.NORM     CORR.ENERGY   TOTAL ENERGY   ENERGY CHANGE        DEN1      VAR(S)    VAR(P)  DIIS     TIME
   1      1.16974614    -0.92025117  -143.47360586    -0.92025117    -0.02464317  0.95D-02  0.34D-02  1  1    20.11
   2      1.18708510    -0.94021993  -143.49357462    -0.01996876    -0.00304745  0.76D-03  0.94D-03  2  2    26.22
   3      1.20333205    -0.94337147  -143.49672616    -0.00315154    -0.00117931  0.12D-02  0.12D-03  3  3    31.85
   4      1.21920647    -0.94606503  -143.49941972    -0.00269356    -0.00056078  0.50D-03  0.85D-04  4  4    37.75
   5      1.25261323    -0.94958744  -143.50294212    -0.00352240    -0.00016390  0.13D-03  0.29D-04  5  5    45.03
   6      1.27472415    -0.95105234  -143.50440703    -0.00146490    -0.00004471  0.28D-04  0.11D-04  6  6    50.34
   7      1.28716210    -0.95177316  -143.50512785    -0.00072082    -0.00001109  0.72D-05  0.28D-05  6  1    56.31
   8      1.28965942    -0.95188613  -143.50524082    -0.00011297    -0.00000215  0.13D-05  0.58D-06  6  2    61.89
   9      1.29047564    -0.95190334  -143.50525803    -0.00001721    -0.00000045  0.27D-06  0.12D-06  6  4    68.51
  10      1.29032632    -0.95189989  -143.50525458     0.00000345    -0.00000010  0.78D-07  0.21D-07  6  3    74.97
  11      1.29039550    -0.95189915  -143.50525384     0.00000074    -0.00000005  0.40D-07  0.10D-07  6  4    82.69
  12      1.29040543    -0.95190054  -143.50525523    -0.00000139    -0.00000002  0.17D-07  0.28D-08  6  5   106.74
  13      1.29040936    -0.95189938  -143.50525407     0.00000116    -0.00000001  0.80D-08  0.13D-08  6  6   112.90
  14      1.29043737    -0.95190110  -143.50525579    -0.00000172    -0.00000000  0.29D-08  0.42D-09  6  1   119.11
  15      1.29042538    -0.95189961  -143.50525429     0.00000150    -0.00000000  0.14D-08  0.18D-09  6  2   125.25
  16      1.29041917    -0.95189919  -143.50525388     0.00000042    -0.00000000  0.67D-09  0.97D-10  6  3   131.10

 Norm of t1 vector:      0.29056730      S-energy:    -0.00613298      T1 diagnostic:  0.04115137
                                                                       D1 diagnostic:  0.12144199
 Norm of t2 vector:      0.45386100      P-energy:    -0.94576621
                                         Alpha-Beta:  -0.68949903
                                         Alpha-Alpha: -0.14183544
                                         Beta-Beta:   -0.11443174

 Singles amplitudes (print threshold =  0.500E-01):

         I         SYM. A    A   T(IA) [Alpha-Alpha]

         6         1         2     -0.07995066
 
         I         SYM. A    A   T(IA) [Beta-Beta]

         4         1         1     -0.15617504
         8         2         1      0.17174442

 Doubles amplitudes (print threshold =  0.500E-01):

         I         J         SYM. A    SYM. B    A         B      T(IJ, AB) [Beta-Beta]

         8         4         1         2         1         1      0.08727257
         8         4         2         1         1         1     -0.08727257

 Spin contamination <S**2-Sz**2-Sz>     0.00000000

 Memory could be reduced to 164.20 Mwords without degradation in triples
 

  Correlated core orbitals:             1.1       2.1       1.2       1.3
  Orbital energies:                    -4.0077   -2.6261   -2.5745   -2.5754
 
  RCCSD core-core energy               -0.119434991909
  RCCSD core-valence energy            -0.263491604927
  RCCSD valence correlation energy     -0.568972593080
 

 RESULTS
 =======

  Reference energy                   -142.553354686890
  RCCSD singles energy                 -0.006132977147
  RCCSD pair energy                    -0.945766212769
  RCCSD correlation energy             -0.951899189916
  Triples (T) contribution             -0.041396346527
  Total correlation energy             -0.993295536444
 
  RHF-RCCSD energy                   -143.505253876806
  RHF-RCCSD[T] energy                -143.551667773285
  RHF-RCCSD-T energy                 -143.546420055334
 !RHF-RCCSD(T) energy                -143.546650223334

 Program statistics:

 Available memory in ccsd:               511998418
 Min. memory needed in ccsd:              14064756
 Max. memory used in ccsd:                20157915
 Max. memory used in cckext:              15861012 (16 integral passes)
 Max. memory used in cckint:              15004909 ( 1 integral passes)



 **********************************************************************************************************************************
 DATASETS  * FILE   NREC   LENGTH (MB)   RECORD NAMES
              1      19       21.25       500      610      700      900      950      970     1000      129      960     1100   
                                          VAR    BASINP    GEOM    SYMINP    ZMAT    AOBASIS   BASIS     P2S    ABASIS      S 
                                         1400     1410     1420     1200     1210     1080     1600     1650     1700   
                                           T        V       ECP      H0       H01     AOSYM     SMH    MOLCAS    OPER   

              2       4        3.66       700     1000      520     2100   
                                         GEOM     BASIS   MCVARS     RHF  

 PROGRAMS   *        TOTAL  RCCSD(T)       RHF       INT  RCCSD(T)       RHF       INT  RCCSD(T)       RHF       INT  RCCSD(T)
 CPU TIMES  *       943.85    203.63      1.37     32.72    201.21      1.40     34.96    216.90      1.24     28.14    189.98
 REAL TIME  *      1707.87 SEC
 DISK USED  *        17.78 GB      
 SF USED    *         2.74 GB      
 GA USED    *         0.00 MB       (max)       0.00 MB       (current)
 **********************************************************************************************************************************
 SETTING CCSD(4)        =      -143.54665022  AU                              

 DO I                   =         5.00000000   
 SETTING Z(5)           =         1.78500000                                  

Geometry recognized as XYZ



 Recomputing integrals since geometry changed


 PROGRAM * SEWARD (Integral evaluation for generally contracted gaussian basis sets)     Author: Roland Lindh, 1990

 Geometry written to block  1 of record 700


 Point group  C2v 



 ATOMIC COORDINATES

 NR  ATOM    CHARGE       X              Y              Z

   1  PD     18.00    0.000000000    0.000000000    0.000000000
   2  O       6.00    0.000000000    0.000000000    3.373161132

 Bond lengths in Bohr (Angstrom)

 1-2  3.373161132
     ( 1.785000000)

 NUCLEAR CHARGE:                   24
 NUMBER OF PRIMITIVE AOS:         370
 NUMBER OF SYMMETRY AOS:          313
 NUMBER OF CONTRACTIONS:          313   ( 138A1  +  71B1  +  71B2  +  33A2  )
 NUMBER OF CORE ORBITALS:           4   (   2A1  +   1B1  +   1B2  +   0A2  )
 NUMBER OF VALENCE ORBITALS:       10   (   5A1  +   2B1  +   2B2  +   1A2  )


 NUCLEAR REPULSION ENERGY   32.01744469

 EXTRA SYMMETRY OF AOS IN SYMMETRY 1:   1 1 1 1 1 1 1 1 1 1   1 1 1 1 1 1 1 1 1 1   1 1 1 1 1 1 1 1 1 1   1 1 1 1 1 1 1 1 1 1
                                        1 1 1 1 1 1 1 1 1 1   1 1 1 2 1 2 1 2 1 2   1 2 1 2 1 2 1 2 1 2   1 2 1 2 1 2 1 2 1 2
                                        1 2 1 2 1 2 1 2 1 2   1 2 1 2 1 3 2 1 3 2   1 3 2 1 1 1 1 1 1 1   1 1 1 1 1 1 1 1 1 1
                                        1 1 1 1 1 1 1 2 1 2   1 2 1 2 1 2 1 2
 EXTRA SYMMETRY OF AOS IN SYMMETRY 2:   1 1 1 1 1 1 1 1 1 1   1 1 1 1 1 1 1 1 1 1   1 1 1 1 1 1 1 1 1 1   1 1 1 1 1 1 1 1 1 1
                                        1 2 1 2 1 2 1 2 1 2   1 2 1 2 1 1 1 1 1 1   1 1 1 1 1 1 1 1 2 1   2
 EXTRA SYMMETRY OF AOS IN SYMMETRY 3:   1 1 1 1 1 1 1 1 1 1   1 1 1 1 1 1 1 1 1 1   1 1 1 1 1 1 1 1 1 1   1 1 1 1 1 1 1 1 1 1
                                        1 2 1 2 1 2 1 2 1 2   1 2 1 2 1 1 1 1 1 1   1 1 1 1 1 1 1 1 2 1   2
 EXTRA SYMMETRY OF AOS IN SYMMETRY 4:   1 1 1 1 1 1 1 1 1 1   1 1 1 1 1 1 1 1 1 1   1 1 2 1 2 1 2 1 1 1   1 1 1

 Eigenvalues of metric

         1 0.849E-06 0.916E-06 0.186E-05 0.895E-05 0.951E-05 0.113E-04 0.253E-04 0.348E-04
         2 0.951E-06 0.981E-06 0.932E-05 0.296E-03 0.471E-03 0.162E-02 0.216E-02 0.297E-02
         3 0.951E-06 0.981E-06 0.932E-05 0.296E-03 0.471E-03 0.162E-02 0.216E-02 0.297E-02
         4 0.951E-05 0.307E-03 0.302E-02 0.107E-01 0.287E-01 0.527E-01 0.859E-01 0.104E+00


 Contracted 2-electron integrals neglected if value below      1.0D-13
 AO integral compression algorithm  1   Integral accuracy      1.0D-13

     968.360 MB (compressed) written to integral file ( 32.2%)

     Node minimum: 23.069 MB, node maximum: 109.314 MB


 NUMBER OF SORTED TWO-ELECTRON INTEGRALS:   13592913.     BUFFER LENGTH:  32768
 NUMBER OF SEGMENTS:   1  SEGMENT LENGTH:   13592913      RECORD LENGTH: 524288

 Memory used in sort:      14.15 MW

 SORT1 READ   375719576. AND WROTE     5695590. INTEGRALS IN     17 RECORDS. CPU TIME:     9.37 SEC, REAL TIME:    11.02 SEC
[...]
                                         1400     1410     1420     1200     1210     1080     1600     1650     1700   
                                           T        V       ECP      H0       H01     AOSYM     SMH    MOLCAS    OPER   

              2       4        3.66       700     1000      520     2100   
                                         GEOM     BASIS   MCVARS     RHF  

 PROGRAMS   *        TOTAL  RCCSD(T)       RHF       INT  RCCSD(T)       RHF       INT  RCCSD(T)       RHF       INT  RCCSD(T)
 CPU TIMES  *      2410.28    229.33      1.73     30.59    199.37      1.69     27.34    218.94      1.43     31.25    226.85
 REAL TIME  *      4659.16 SEC
 DISK USED  *        18.19 GB      
 SF USED    *         2.74 GB      
 GA USED    *         0.00 MB       (max)       0.00 MB       (current)
 **********************************************************************************************************************************
 SETTING CCSD(10)       =      -143.49471543  AU                              

 DO I                   =        11.00000000   
 SETTING Z(11)          =         1.48500000                                  

Geometry recognized as XYZ



 Recomputing integrals since geometry changed


 PROGRAM * SEWARD (Integral evaluation for generally contracted gaussian basis sets)     Author: Roland Lindh, 1990

 Geometry written to block  1 of record 700


 Point group  C2v 



 ATOMIC COORDINATES

 NR  ATOM    CHARGE       X              Y              Z

   1  PD     18.00    0.000000000    0.000000000    0.000000000
   2  O       6.00    0.000000000    0.000000000    2.806243295

 Bond lengths in Bohr (Angstrom)

 1-2  2.806243295
     ( 1.485000000)

 NUCLEAR CHARGE:                   24
 NUMBER OF PRIMITIVE AOS:         370
 NUMBER OF SYMMETRY AOS:          313
 NUMBER OF CONTRACTIONS:          313   ( 138A1  +  71B1  +  71B2  +  33A2  )
 NUMBER OF CORE ORBITALS:           4   (   2A1  +   1B1  +   1B2  +   0A2  )
 NUMBER OF VALENCE ORBITALS:       10   (   5A1  +   2B1  +   2B2  +   1A2  )


 NUCLEAR REPULSION ENERGY   38.48561534

 EXTRA SYMMETRY OF AOS IN SYMMETRY 1:   1 1 1 1 1 1 1 1 1 1   1 1 1 1 1 1 1 1 1 1   1 1 1 1 1 1 1 1 1 1   1 1 1 1 1 1 1 1 1 1
                                        1 1 1 1 1 1 1 1 1 1   1 1 1 2 1 2 1 2 1 2   1 2 1 2 1 2 1 2 1 2   1 2 1 2 1 2 1 2 1 2
                                        1 2 1 2 1 2 1 2 1 2   1 2 1 2 1 3 2 1 3 2   1 3 2 1 1 1 1 1 1 1   1 1 1 1 1 1 1 1 1 1
                                        1 1 1 1 1 1 1 2 1 2   1 2 1 2 1 2 1 2
 EXTRA SYMMETRY OF AOS IN SYMMETRY 2:   1 1 1 1 1 1 1 1 1 1   1 1 1 1 1 1 1 1 1 1   1 1 1 1 1 1 1 1 1 1   1 1 1 1 1 1 1 1 1 1
                                        1 2 1 2 1 2 1 2 1 2   1 2 1 2 1 1 1 1 1 1   1 1 1 1 1 1 1 1 2 1   2
 EXTRA SYMMETRY OF AOS IN SYMMETRY 3:   1 1 1 1 1 1 1 1 1 1   1 1 1 1 1 1 1 1 1 1   1 1 1 1 1 1 1 1 1 1   1 1 1 1 1 1 1 1 1 1
                                        1 2 1 2 1 2 1 2 1 2   1 2 1 2 1 1 1 1 1 1   1 1 1 1 1 1 1 1 2 1   2
 EXTRA SYMMETRY OF AOS IN SYMMETRY 4:   1 1 1 1 1 1 1 1 1 1   1 1 1 1 1 1 1 1 1 1   1 1 2 1 2 1 2 1 1 1   1 1 1

 Eigenvalues of metric

         1 0.748E-06 0.903E-06 0.179E-05 0.787E-05 0.919E-05 0.949E-05 0.217E-04 0.316E-04
         2 0.932E-06 0.975E-06 0.927E-05 0.293E-03 0.469E-03 0.159E-02 0.210E-02 0.294E-02
         3 0.932E-06 0.975E-06 0.927E-05 0.293E-03 0.469E-03 0.159E-02 0.210E-02 0.294E-02
         4 0.949E-05 0.307E-03 0.302E-02 0.107E-01 0.286E-01 0.524E-01 0.790E-01 0.899E-01


 Contracted 2-electron integrals neglected if value below      1.0D-13
 AO integral compression algorithm  1   Integral accuracy      1.0D-13

     1043.071 MB (compressed) written to integral file ( 34.7%)

     Node minimum: 25.166 MB, node maximum: 109.314 MB


 NUMBER OF SORTED TWO-ELECTRON INTEGRALS:   13592913.     BUFFER LENGTH:  32768
 NUMBER OF SEGMENTS:   1  SEGMENT LENGTH:   13592913      RECORD LENGTH: 524288

 Memory used in sort:      14.15 MW

 SORT1 READ   375719576. AND WROTE     6114105. INTEGRALS IN     18 RECORDS. CPU TIME:     6.35 SEC, REAL TIME:     7.91 SEC
 SORT2 READ   140699088. AND WROTE   312994044. INTEGRALS IN   4071 RECORDS. CPU TIME:     0.78 SEC, REAL TIME:     1.52 SEC

 Node minimum:    13561530.  Node maximum:    13694643. integrals

 OPERATOR DM      FOR CENTER  0  COORDINATES:    0.000000    0.000000    0.000000


 **********************************************************************************************************************************
 DATASETS  * FILE   NREC   LENGTH (MB)   RECORD NAMES
              1      19       21.20       500      610      700      900      950      970     1000      129      960     1100   
                                          VAR    BASINP    GEOM    SYMINP    ZMAT    AOBASIS   BASIS     P2S    ABASIS      S 
                                         1400     1410     1420     1200     1210     1080     1600     1650     1700   
                                           T        V       ECP      H0       H01     AOSYM     SMH    MOLCAS    OPER   

              2       4        3.66       700     1000      520     2100   
                                         GEOM     BASIS   MCVARS     RHF  

 PROGRAMS   *        TOTAL       INT  RCCSD(T)       RHF       INT  RCCSD(T)       RHF       INT  RCCSD(T)       RHF       INT
 CPU TIMES  *      2438.09     27.81    229.33      1.73     30.59    199.37      1.69     27.34    218.94      1.43     31.25
 REAL TIME  *      4689.67 SEC
 DISK USED  *        18.21 GB      
 SF USED    *         2.74 GB      
 GA USED    *         0.00 MB       (max)       0.00 MB       (current)
 **********************************************************************************************************************************


 PROGRAM * RHF-SCF (OPEN SHELL)       Authors: W. Meyer, H.-J. Werner


 NUMBER OF ELECTRONS:      13+   11-    SPACE SYMMETRY=2    SPIN SYMMETRY: Triplet 
 CONVERGENCE THRESHOLDS:    1.00E-05 (Density)    1.00E-07 (Energy)
 MAX. NUMBER OF ITERATIONS:       60
 INTERPOLATION TYPE:            DIIS
 INTERPOLATION STEPS:              2 (START)      1 (STEP)
 LEVEL SHIFTS:                 -0.60 (CLOSED) -0.30 (OPEN) 

 Number of closed-shell orbitals:   11 (   5   2   3   1 )
 Number of open-shell orbitals:      2 (   1   1   0   0 )


 Molecular orbitals read from record     2100.2  Type=RHF/CANONICAL (state 1.2)

 Molecular orbital dump at record        2100.2

 ITERATION    DDIFF          GRAD             ENERGY        2-EL.EN.            DIPOLE MOMENTS         DIIS   ORB.
    1      0.000D+00      0.000D+00      -142.41483236    295.541096    0.00000    0.00000   -1.34730    0    start
    2      0.000D+00      0.503D-02      -142.41760148    295.419818    0.00000    0.00000   -1.37327    1    diag,B
    3      0.433D-02      0.471D-03      -142.41827083    295.391195    0.00000    0.00000   -1.34587    2    diag,B
    4      0.709D-03      0.255D-03      -142.41867648    295.298102    0.00000    0.00000   -1.34673    3    diag,B
    5      0.238D-03      0.199D-03      -142.41905033    295.243640    0.00000    0.00000   -1.33215    4    diag,B
    6      0.236D-03      0.135D-03      -142.41948166    295.119851    0.00000    0.00000   -1.31306    5    diag,B
    7      0.429D-03      0.928D-04      -142.41968343    295.039828    0.00000    0.00000   -1.30001    6    diag,B
    8      0.282D-03      0.592D-04      -142.41977297    294.970500    0.00000    0.00000   -1.29032    7    orth
    9      0.206D-03      0.323D-04      -142.41979720    294.933198    0.00000    0.00000   -1.28691    8    diag,B
   10      0.138D-03      0.129D-04      -142.41979957    294.924836    0.00000    0.00000   -1.28706    9    diag,B
   11      0.463D-04      0.474D-05      -142.41979981    294.924006    0.00000    0.00000   -1.28753    9    diag,B
   12      0.178D-04      0.223D-05      -142.41979988    294.924418    0.00000    0.00000   -1.28787    9    diag,B
   13      0.624D-05      0.137D-05      -142.41979990    294.924460    0.00000    0.00000   -1.28800    0    orth

 Final alpha occupancy:   6   3   3   1
 Final beta  occupancy:   5   2   3   1

 !RHF STATE 1.2 Energy               -142.419799899126
 Nuclear energy                        38.48561534
 One-electron energy                 -328.36764524
 Two-electron energy                  147.46223000
 Virial quotient                       -2.35294532
 !RHF STATE 1.2 Dipole moment           0.00000000     0.00000000    -1.28799503
 Dipole moment /Debye                   0.00000000     0.00000000    -3.27354240

 Orbital energies:

         1.1          2.1          3.1          4.1          5.1          6.1          7.1          8.1
     -4.032204    -2.646724    -1.277792    -0.608040    -0.480341    -0.305010     0.008817     0.032873

         1.2          2.2          3.2          4.2          5.2
     -2.596154    -0.596684    -0.449852     0.023855     0.078488

         1.3          2.3          3.3          4.3          5.3
     -2.594105    -0.657725    -0.373897     0.025095     0.081710

         1.4          2.4          3.4
     -0.480505     0.096920     0.316560

 HOMO      6.1    -0.305010 =      -8.2998eV
 LUMO      7.1     0.008817 =       0.2399eV
 LUMO-HOMO         0.313828 =       8.5397eV


 **********************************************************************************************************************************
 DATASETS  * FILE   NREC   LENGTH (MB)   RECORD NAMES
              1      19       21.25       500      610      700      900      950      970     1000      129      960     1100   
                                          VAR    BASINP    GEOM    SYMINP    ZMAT    AOBASIS   BASIS     P2S    ABASIS      S 
                                         1400     1410     1420     1200     1210     1080     1600     1650     1700   
                                           T        V       ECP      H0       H01     AOSYM     SMH    MOLCAS    OPER   

              2       4        3.66       700     1000      520     2100   
                                         GEOM     BASIS   MCVARS     RHF  

 PROGRAMS   *        TOTAL       RHF       INT  RCCSD(T)       RHF       INT  RCCSD(T)       RHF       INT  RCCSD(T)       RHF
 CPU TIMES  *      2439.64      1.55     27.81    229.33      1.73     30.59    199.37      1.69     27.34    218.94      1.43
 REAL TIME  *      4691.46 SEC
 DISK USED  *        18.21 GB      
 SF USED    *         2.74 GB      
 GA USED    *         0.00 MB       (max)       0.00 MB       (current)
 **********************************************************************************************************************************
 SETTING SCF(11)        =      -142.41979990  AU                              
 SETTING _CC_NORM_MAX   =         2.00000000                                  


 PROGRAM * CCSD (Restricted open-shell coupled cluster)     Authors: C. Hampel, H.-J. Werner, 1991, M. Deegan, P.J. Knowles, 1992


 Convergence thresholds:  THRVAR = 1.00D-08  THRDEN = 1.00D-06

 CCSD(T)     terms to be evaluated (factor= 1.000)


 Number of closed-shell orbitals:  11 (   5   2   3   1 )
 Number of active  orbitals:        2 (   1   1   0   0 )
 Number of external orbitals:     300 ( 132  68  68  32 )

 Memory could be reduced to 163.04 Mwords without degradation in triples

 Number of N-1 electron functions:              24
 Number of N-2 electron functions:             276
 Number of singly external CSFs:              2280
 Number of doubly external CSFs:           4894910
 Total number of CSFs:                     4897190

 Molecular orbitals read from record     2100.2  Type=RHF/CANONICAL (state 1.2)

 Integral transformation finished. Total CPU:   6.30 sec, npass=  1  Memory used:  15.00 MW

 Starting RMP2 calculation

 Wavefunction is spin-projected

 ITER.      SQ.NORM     CORR.ENERGY   TOTAL ENERGY   ENERGY CHANGE        DEN1      VAR(S)    VAR(P)  DIIS     TIME
   1      1.22299941    -1.05185985  -143.47165975    -1.05185985    -0.00189662  0.37D-04  0.72D-03  1  1     7.61
   2      1.22484995    -1.05387586  -143.47367576    -0.00201601    -0.00000755  0.97D-06  0.41D-05  2  2     8.47
   3      1.22496810    -1.05394011  -143.47374001    -0.00006425    -0.00000005  0.21D-07  0.25D-07  3  3     9.25
   4      1.22497220    -1.05394097  -143.47374086    -0.00000085    -0.00000000  0.27D-09  0.20D-09  4  4    10.30

 Norm of t1 vector:      0.05232298      S-energy:    -0.00551289      T1 diagnostic:  0.00092378
 Norm of t2 vector:      0.47141755      P-energy:    -1.04842808
                                         Alpha-Beta:  -0.72650043
                                         Alpha-Alpha: -0.17317252
                                         Beta-Beta:   -0.14875513

 Spin contamination <S**2-Sz**2-Sz>     0.00000000
  Reference energy                   -142.419799899126
  RHF-RMP2 correlation energy          -1.053940965723
 !RHF-RMP2 energy                    -143.473740864850
 (NB above energy spin projected)

 Starting RCCSD calculation

 ITER.      SQ.NORM     CORR.ENERGY   TOTAL ENERGY   ENERGY CHANGE        DEN1      VAR(S)    VAR(P)  DIIS     TIME
   1      1.18185009    -0.96257775  -143.38237765    -0.96257775    -0.03825404  0.12D-01  0.69D-02  1  1    16.89
   2      1.20355171    -0.99206548  -143.41186538    -0.02948773    -0.00319515  0.95D-03  0.88D-03  2  2    23.55
   3      1.21783749    -0.99461043  -143.41441033    -0.00254496    -0.00091238  0.95D-03  0.58D-04  3  3    29.97
   4      1.23207162    -0.99740043  -143.41720033    -0.00279000    -0.00026688  0.23D-03  0.27D-04  4  4    36.81
   5      1.24724308    -0.99934851  -143.41914841    -0.00194808    -0.00004395  0.37D-04  0.52D-05  5  5    43.02
   6      1.25197222    -0.99975016  -143.41955006    -0.00040165    -0.00000764  0.64D-05  0.12D-05  6  6    50.03
   7      1.25349635    -0.99984128  -143.41964118    -0.00009112    -0.00000166  0.14D-05  0.27D-06  6  1    57.03
   8      1.25368599    -0.99986403  -143.41966393    -0.00002275    -0.00000041  0.50D-06  0.50D-07  6  2    63.93
   9      1.25380563    -0.99985374  -143.41965364     0.00001029    -0.00000014  0.18D-06  0.14D-07  6  3    70.24
  10      1.25395013    -0.99987204  -143.41967194    -0.00001830    -0.00000005  0.49D-07  0.60D-08  6  4    77.04
  11      1.25390857    -0.99985595  -143.41965585     0.00001609    -0.00000001  0.10D-07  0.23D-08  6  6    83.47
  12      1.25395164    -0.99986096  -143.41966086    -0.00000502    -0.00000000  0.11D-08  0.57D-09  6  1    90.56
  13      1.25394028    -0.99985808  -143.41965798     0.00000288    -0.00000000  0.15D-09  0.67D-10  6  5    98.07
  14      1.25394099    -0.99985826  -143.41965816    -0.00000018    -0.00000000  0.57D-10  0.14D-10  6  2   104.83

 Norm of t1 vector:      0.22994021      S-energy:    -0.00520351      T1 diagnostic:  0.03238886
                                                                       D1 diagnostic:  0.10412444
 Norm of t2 vector:      0.44840661      P-energy:    -0.99465475
                                         Alpha-Beta:  -0.71731566
                                         Alpha-Alpha: -0.14712885
                                         Beta-Beta:   -0.13021024

 Singles amplitudes (print threshold =  0.500E-01):

         I         SYM. A    A   T(IA) [Beta-Beta]

         4         1         1     -0.06977249
         8         2         1      0.14721254

 Doubles amplitudes (print threshold =  0.500E-01):

         I         J         SYM. A    SYM. B    A         B      T(IJ, AB) [Beta-Beta]

         8         4         1         2         1         1      0.05654498
         8         4         2         1         1         1     -0.05654498

 Spin contamination <S**2-Sz**2-Sz>     0.00000000

 Memory could be reduced to 164.20 Mwords without degradation in triples
 

  Correlated core orbitals:             1.1       2.1       1.2       1.3
  Orbital energies:                    -4.0576   -2.6875   -2.6233   -2.6061
 
  RCCSD core-core energy               -0.117136923791
  RCCSD core-valence energy            -0.266562441119
  RCCSD valence correlation energy     -0.616158894069
 

 RESULTS
 =======

  Reference energy                   -142.419799899126
  RCCSD singles energy                 -0.005203507450
  RCCSD pair energy                    -0.994654751529
  RCCSD correlation energy             -0.999858258979
  Triples (T) contribution             -0.046160601290
  Total correlation energy             -1.046018860268
 
  RHF-RCCSD energy                   -143.419658158105
  RHF-RCCSD[T] energy                -143.469434141433
  RHF-RCCSD-T energy                 -143.465505320676
 !RHF-RCCSD(T) energy                -143.465818759395

 Program statistics:

 Available memory in ccsd:               511998418
 Min. memory needed in ccsd:              14064756
 Max. memory used in ccsd:                20157915
 Max. memory used in cckext:              15861012 (14 integral passes)
 Max. memory used in cckint:              15004909 ( 1 integral passes)



 **********************************************************************************************************************************
 DATASETS  * FILE   NREC   LENGTH (MB)   RECORD NAMES
              1      19       21.25       500      610      700      900      950      970     1000      129      960     1100   
                                          VAR    BASINP    GEOM    SYMINP    ZMAT    AOBASIS   BASIS     P2S    ABASIS      S 
                                         1400     1410     1420     1200     1210     1080     1600     1650     1700   
                                           T        V       ECP      H0       H01     AOSYM     SMH    MOLCAS    OPER   

              2       4        3.66       700     1000      520     2100   
                                         GEOM     BASIS   MCVARS     RHF  

 PROGRAMS   *        TOTAL  RCCSD(T)       RHF       INT  RCCSD(T)       RHF       INT  RCCSD(T)       RHF       INT  RCCSD(T)
 CPU TIMES  *      2616.53    176.82      1.55     27.81    229.33      1.73     30.59    199.37      1.69     27.34    218.94
 REAL TIME  *      5064.12 SEC
 DISK USED  *        18.21 GB      
 SF USED    *         2.74 GB      
 GA USED    *         0.00 MB       (max)       0.00 MB       (current)
 **********************************************************************************************************************************
 SETTING CCSD(11)       =      -143.46581876  AU                              
 Output type csv         
                                                                                                                                                                                                                                                                

     Z,SCF,CCSD
   1.985,   -142.5610405,   -143.5402722
   1.935,   -142.5602834,   -143.5433400
   1.885,   -142.5578478,   -143.5455611
   1.835,   -142.5533547,   -143.5466502
   1.785,   -142.5463648,   -143.5462156
   1.735,   -142.5363772,   -143.5437227
   1.685,   -142.5228303,   -143.5384253
   1.635,   -142.5051032,   -143.5293535
   1.585,   -142.4825140,   -143.5152813
   1.535,   -142.4543236,   -143.4947154
   1.485,   -142.4197999,   -143.4658188
                                                  

 RCCSD(T)/USERDEF energy=   -143.465818759395

        RCCSD(T)        RHF-SCF         RCCSD(T)        RHF-SCF         RCCSD(T)        RHF-SCF         RCCSD(T)        RHF-SCF 
   -143.46581876   -142.41979990   -143.49471543   -142.45432357   -143.51528127   -142.48251398   -143.52935351   -142.50510322
 **********************************************************************************************************************************
 Molpro calculation terminated
 Variable memory released
