
 Primary working directories    : /global/cscratch1/sd/gwang18
 Secondary working directories  : /global/cscratch1/sd/gwang18
 Wavefunction directory         : /global/homes/g/gwang18/wfu/
 Main file repository           : /global/cscratch1/sd/gwang18/

 SHA1      : 19cd028119e0e09f93f0674bd8af7968d9b3eff6
 NAME      : 2015.1.36
 ARCHNAME  : linux/x86_64
 FC        : /opt/cray/pe/craype/2.5.14/bin/ftn
 BLASLIB   : -L/opt/intel/compilers_and_libraries_2018.1.163/linux/mkl/lib/intel64 -Wl,-_start-group -lmkl_intel_ilp64 -lmkl_intel_thread -lmkl_core -Wl,-_end-group -liomp5
 id        : lbl

 Nodes     nprocs
 nid00765     9
 Number of processes for MPI-2 version of Molpro:   nprocs(total)=   10   nprocs(compute)=    9   nprocs(helper)=    1

 Using customized tuning parameters: mindgm=7; mindgv=16; mindgc=1; mindgr=1; noblas=0; minvec=7
 default implementation of scratch files=sf  

 ***,Calculation for all-electron AgO molecule, SCF and CCSD(T)
 memory,1,g
 gthresh,twoint=1.0E-12
 
 set,dkroll=1,dkho=10,dkhp=4
 
                                                                                 !These are the wf cards parameters
 ne = 60
 symm = 4
 ss= 2
 
                                                                                 !There are irrep cards paramters
 A1=15
 B1=7
 B2=7
 A2=2
 
 basis={
 Including file /global/u2/g/gwang18/projects/cc-so-ecp/te/rerun-teo-uc/UC/r_1.50/Te.aug-cc-pwcvqz-dk3.1.unc.mod.mpro
 Including file /global/u2/g/gwang18/projects/cc-so-ecp/te/rerun-teo-uc/UC/r_1.50/O.aug-cc-pCVQZ-DK.unc.mpro
 }
 
 geometry={
     2
     TeO molecule
     Te 0.0 0.0 0.0
     O 0.0 0.0 1.50
 }
 {rhf
  wf,ne,symm,ss
  start,5202.2
  occ,A1,B1,B2,A2
  closed,A1,B1-1,B2-1,A2
  print,orbitals=2
 }
 scf=energy
 _CC_NORM_MAX=2.0
 {rccsd(t);maxit,100;core,12,5,5,2}
 ccsd=energy
 bind=ccsd-I_ccsd-O_ccsd
 
 
 table,1.50,scf,ccsd
 save
 type,csv
 

 Variables initialized (889), CPU time= 0.00 sec
 Commands  initialized (702), CPU time= 0.07 sec, 572 directives.
 Default parameters read. Elapsed time= 0.14 sec

 Checking input...
 Passed
1


                                         ***  PROGRAM SYSTEM MOLPRO  ***
                                       Copyright, TTI GmbH Stuttgart, 2015
                                    Version 2015.1 linked Dec 29 2018 15:55:43


 **********************************************************************************************************************************
 LABEL *   Calculation for all-electron AgO molecule, SCF and CCSD(T)                    
  64 bit mpp version                                                                     DATE: 28-Dec-21          TIME: 19:06:49  
 **********************************************************************************************************************************

 SHA1:             19cd028119e0e09f93f0674bd8af7968d9b3eff6
 **********************************************************************************************************************************

 THRESHOLDS:

 ZERO    =  1.00D-12  ONEINT  =  1.00D-12  TWOINT  =  1.00D-12  PREFAC  =  1.00D-14  LOCALI  =  1.00D-09  EORDER  =  1.00D-04
 ENERGY  =  0.00D+00  ETEST   =  0.00D+00  EDENS   =  0.00D+00  THRDEDEF=  1.00D-06  GRADIENT=  1.00D-02  STEP    =  1.00D-03
 ORBITAL =  1.00D-05  CIVEC   =  1.00D-05  COEFF   =  1.00D-04  PRINTCI =  5.00D-02  PUNCHCI =  9.90D+01  OPTGRAD =  3.00D-04
 OPTENERG=  1.00D-06  OPTSTEP =  3.00D-04  THRGRAD =  1.00D-10  COMPRESS=  1.00D-11  VARMIN  =  1.00D-07  VARMAX  =  1.00D-03
 THRDOUB =  0.00D+00  THRDIV  =  1.00D-05  THRRED  =  1.00D-07  THRPSP  =  1.00D+00  THRDC   =  1.00D-10  THRCS   =  1.00D-10
 THRNRM  =  1.00D-08  THREQ   =  0.00D+00  THRDE   =  1.00D+00  THRREF  =  1.00D-05  SPARFAC =  1.00D+00  THRDLP  =  1.00D-07
 THRDIA  =  1.00D-10  THRDLS  =  1.00D-07  THRGPS  =  0.00D+00  THRKEX  =  0.00D+00  THRDIS  =  2.00D-01  THRVAR  =  1.00D-10
 THRLOC  =  1.00D-06  THRGAP  =  1.00D-06  THRLOCT = -1.00D+00  THRGAPT = -1.00D+00  THRORB  =  1.00D-06  THRMLTP =  0.00D+00
 THRCPQCI=  1.00D-10  KEXTA   =  0.00D+00  THRCOARS=  0.00D+00  SYMTOL  =  1.00D-06  GRADTOL =  1.00D-06  THROVL  =  1.00D-08
 THRORTH =  1.00D-08  GRID    =  1.00D-06  GRIDMAX =  1.00D-03  DTMAX   =  0.00D+00  THROCCDE=  1.00D-01  THROCCDE=  1.00D-01


 SETTING DKROLL         =         1.00000000                                  
 SETTING DKHO           =        10.00000000                                  
 SETTING DKHP           =         4.00000000                                  
 SETTING NE             =        60.00000000                                  
 SETTING SYMM           =         4.00000000                                  
 SETTING SS             =         2.00000000                                  
 SETTING A1             =        15.00000000                                  
 SETTING B1             =         7.00000000                                  
 SETTING B2             =         7.00000000                                  
 SETTING A2             =         2.00000000                                  

 Variable memory set to 1000000000 words,  buffer space   230000 words

 SETTING BASIS          =    USERDEF

Geometry recognized as XYZ



 Recomputing integrals since basis changed


 Using spherical harmonics



 PROGRAM * SEWARD (Integral evaluation for generally contracted gaussian basis sets)     Author: Roland Lindh, 1990

 Geometry written to block  1 of record 700


 Point group  C2v 



 ATOMIC COORDINATES

 NR  ATOM    CHARGE       X              Y              Z

   1  TE     52.00    0.000000000    0.000000000    0.000000000
   2  O       8.00    0.000000000    0.000000000    2.834589187

 Bond lengths in Bohr (Angstrom)

 1-2  2.834589187
     ( 1.500000000)

 NUCLEAR CHARGE:                   60
 NUMBER OF PRIMITIVE AOS:         514
 NUMBER OF SYMMETRY AOS:          413
 NUMBER OF CONTRACTIONS:          413   ( 174A1  +  95B1  +  95B2  +  49A2  )
 NUMBER OF CORE ORBITALS:          24   (  12A1  +   5B1  +   5B2  +   2A2  )
 NUMBER OF VALENCE ORBITALS:        8   (   4A1  +   2B1  +   2B2  +   0A2  )


 NUCLEAR REPULSION ENERGY  146.75847983

 One-electron integrals computed with SEWARD

 10nd-order Douglas-Kroll-Hess method activated. McWeeny DKH parametrization is used.

 Computing Douglas-Kroll / X2C integrals

 AO integral compression algorithm  1   Integral accuracy      1.0D-12

     2054.423 MB (compressed) written to integral file ( 23.4%)

     Node minimum: 193.987 MB, node maximum: 307.495 MB


 NUMBER OF SORTED TWO-ELECTRON INTEGRALS:  104033556.     BUFFER LENGTH:  32768
 NUMBER OF SEGMENTS:   4  SEGMENT LENGTH:   31992840      RECORD LENGTH: 524288

 Memory used in sort:      32.55 MW

 SORT1 READ  1097058901. AND WROTE    39085877. INTEGRALS IN    115 RECORDS. CPU TIME:    15.23 SEC, REAL TIME:    19.84 SEC
 SORT2 READ   347356139. AND WROTE   936703135. INTEGRALS IN   7020 RECORDS. CPU TIME:     1.52 SEC, REAL TIME:     2.28 SEC

 Node minimum:   103978288.  Node maximum:   104214464. integrals

 OPERATOR DM      FOR CENTER  0  COORDINATES:    0.000000    0.000000    0.000000

 EXTRA SYMMETRY OF AOS IN SYMMETRY 1:   1 1 1 1 1 1 1 1 1 1   1 1 1 1 1 1 1 1 1 1   1 1 1 1 1 1 1 1 1 1   1 1 1 1 1 1 1 1 1 1
                                        1 1 1 1 1 1 1 1 1 1   1 1 1 1 1 1 1 1 2 1   2 1 2 1 2 1 2 1 2 1   2 1 2 1 2 1 2 1 2 1
                                        2 1 2 1 2 1 2 1 2 1   2 1 2 1 2 1 2 1 2 1   2 1 2 1 2 1 2 1 3 2   1 3 2 1 3 2 1 3 2 2
                                        3 1 1 1 1 1 1 1 1 1   1 1 1 1 1 1 1 1 1 1   1 1 1 1 1 1 1 1 1 2   1 2 1 2 1 2 1 2 1 2
                                        1 2 1 2 1 2 1 2 1 3   2 1 3 2
 EXTRA SYMMETRY OF AOS IN SYMMETRY 2:   1 1 1 1 1 1 1 1 1 1   1 1 1 1 1 1 1 1 1 1   1 1 1 1 1 1 1 1 1 1   1 1 1 1 1 1 1 1 1 1
                                        1 1 1 1 1 2 1 2 1 2   1 2 1 2 1 2 1 2 1 2   1 2 1 2 1 2 3 1 1 1   1 1 1 1 1 1 1 1 1 1
                                        1 1 1 1 2 1 2 1 2 1   2 1 2 1 2
 EXTRA SYMMETRY OF AOS IN SYMMETRY 3:   1 1 1 1 1 1 1 1 1 1   1 1 1 1 1 1 1 1 1 1   1 1 1 1 1 1 1 1 1 1   1 1 1 1 1 1 1 1 1 1
                                        1 1 1 1 1 2 1 2 1 2   1 2 1 2 1 2 1 2 1 2   1 2 1 2 1 2 3 1 1 1   1 1 1 1 1 1 1 1 1 1
                                        1 1 1 1 2 1 2 1 2 1   2 1 2 1 2
 EXTRA SYMMETRY OF AOS IN SYMMETRY 4:   1 1 1 1 1 1 1 1 1 1   1 1 1 1 1 1 1 1 1 1   1 1 1 1 1 1 2 1 2 1   2 1 2 2 1 1 1 1 1 1
                                        1 1 1 1 1 1 2 1 2

 Eigenvalues of metric

         1 0.213E-05 0.267E-05 0.112E-04 0.301E-04 0.356E-04 0.543E-04 0.918E-04 0.117E-03
         2 0.226E-05 0.195E-03 0.591E-03 0.607E-03 0.761E-03 0.191E-02 0.203E-02 0.309E-02
         3 0.226E-05 0.195E-03 0.591E-03 0.607E-03 0.761E-03 0.191E-02 0.203E-02 0.309E-02
         4 0.601E-03 0.214E-02 0.468E-02 0.906E-02 0.184E-01 0.222E-01 0.371E-01 0.477E-01


 **********************************************************************************************************************************
 DATASETS  * FILE   NREC   LENGTH (MB)   RECORD NAMES
              1      22       23.36       500      610      700      900      950      970     1000      129      960     1700   
                                          VAR    BASINP    GEOM    SYMINP    ZMAT    AOBASIS   BASIS     P2S    ABASIS    OPER   
                                         1101     1401     1411     1412     1650     1100     1400     1410     1200     1210   
                                          SR      EKINR    POTR     PVPR    MOLCAS      S      EKIN      POT      H0       H01  
                                         1080     1600   
                                         AOSYM     SMH  

 PROGRAMS   *        TOTAL       INT
 CPU TIMES  *        82.36     82.17
 REAL TIME  *        89.82 SEC
 DISK USED  *         6.19 GB      
 GA USED    *         0.00 MB       (max)       0.00 MB       (current)
 **********************************************************************************************************************************


 PROGRAM * RHF-SCF (OPEN SHELL)       Authors: W. Meyer, H.-J. Werner


 NUMBER OF ELECTRONS:      31+   29-    SPACE SYMMETRY=4    SPIN SYMMETRY: Triplet 
 CONVERGENCE THRESHOLDS:    1.00E-05 (Density)    1.20E-07 (Energy)
 MAX. NUMBER OF ITERATIONS:       60
 INTERPOLATION TYPE:            DIIS
 INTERPOLATION STEPS:              2 (START)      1 (STEP)
 LEVEL SHIFTS:                 -0.60 (CLOSED) -0.30 (OPEN) 

 Number of closed-shell orbitals:   29 (  15   6   6   2 )
 Number of open-shell orbitals:      2 (   0   1   1   0 )


 Orbital guess generated from atomic densities. Full valence occupancy:   16   7   7   2

 Molecular orbital dump at record        2100.2

 ITERATION    DDIFF          GRAD             ENERGY        2-EL.EN.            DIPOLE MOMENTS         DIIS   ORB.
    1      0.000D+00      0.000D+00     -6508.29172319   8128.577801    0.00000    0.00000   16.94369    0    start
    2      0.000D+00      0.959D+00     -6011.32014939   2354.672982    0.00000    0.00000 -115.72414    1    diag,B
    3      0.260D+01      0.564D+00     -6652.96367755   7460.192532    0.00000    0.00000   17.98450    2    diag,B
    4      0.259D+01      0.603D+00     -6772.91584887   6662.741786    0.00000    0.00000   17.15038    3    diag,B
    5      0.140D+00      0.327D+00     -6860.56952288   5591.462451    0.00000    0.00000   -5.95763    4    diag,B
    6      0.730D-01      0.950D-01     -6853.28481021   5555.671797    0.00000    0.00000   22.83113    5    diag,B
    7      0.236D-01      0.608D-01     -6864.29302572   5472.640348    0.00000    0.00000   -5.41170    6    fixocc
    8      0.202D-01      0.262D-01     -6865.68330682   5400.562453    0.00000    0.00000   -2.49324    7    diag,B
    9      0.104D-01      0.846D-02     -6865.80954525   5405.525882    0.00000    0.00000   -1.54617    8    diag,B
   10      0.391D-02      0.223D-02     -6865.83181938   5409.220074    0.00000    0.00000   -1.18095    9    orth
   11      0.198D-02      0.935D-03     -6865.83820457   5407.213038    0.00000    0.00000   -0.97058    9    diag,B
   12      0.124D-02      0.433D-03     -6865.84010838   5406.525446    0.00000    0.00000   -0.95033    9    diag,B
   13      0.785D-03      0.158D-03     -6865.84041983   5406.528452    0.00000    0.00000   -0.94730    9    diag,B
   14      0.251D-03      0.116D-03     -6865.84058439   5406.512834    0.00000    0.00000   -0.94242    9    diag,B
   15      0.168D-03      0.375D-04     -6865.84062589   5406.518435    0.00000    0.00000   -0.94197    9    diag,B
   16      0.696D-04      0.137D-04     -6865.84063123   5406.522716    0.00000    0.00000   -0.94410    9    diag,B
   17      0.271D-04      0.441D-05     -6865.84063162   5406.521524    0.00000    0.00000   -0.94446    9    diag,B
   18      0.132D-04      0.115D-05     -6865.84063164   5406.521667    0.00000    0.00000   -0.94462    9    diag,B
   19      0.609D-05      0.335D-06     -6865.84063164   5406.521835    0.00000    0.00000   -0.94464    0    orth

 Final alpha occupancy:  15   7   7   2
 Final beta  occupancy:  15   6   6   2

 !RHF STATE 1.4 Energy              -6865.840631640144
 Nuclear energy                       146.75847983
 One-electron energy                -9715.86002880
 Two-electron energy                 2703.26091734
 Virial quotient                       -0.85625451
 !RHF STATE 1.4 Dipole moment           0.00000000     0.00000000    -0.94463524
 Dipole moment /Debye                   0.00000000     0.00000000    -2.40086602

 ELECTRON ORBITALS
 =================


   Orb  Occ    Energy  Couls-En    Coefficients

                                   1 1s      1 1s      1 1s      1 1s      1 1s      1 1s      1 1s      1 1s      1 1s      1 1s   
                                   1 1s      1 1s      1 1s      1 1s      1 1s      1 1s      1 1s      1 1s      1 1s      1 1s   
                                   1 1s      1 1s      1 1s      1 1s      1 1s      1 1s      1 1s      1 1s      1 1s      1 1s   
                                   1 1s      1 1s      1 2pz     1 2pz     1 2pz     1 2pz     1 2pz     1 2pz     1 2pz     1 2pz  
                                   1 2pz     1 2pz     1 2pz     1 2pz     1 2pz     1 2pz     1 2pz     1 2pz     1 2pz     1 2pz  
                                   1 2pz     1 2pz     1 2pz     1 2pz     1 2pz     1 2pz     1 2pz     1 3d0     1 3d2+    1 3d0  
                                   1 3d2+    1 3d0     1 3d2+    1 3d0     1 3d2+    1 3d0     1 3d2+    1 3d0     1 3d2+    1 3d0  
                                   1 3d2+    1 3d0     1 3d2+    1 3d0     1 3d2+    1 3d0     1 3d2+    1 3d0     1 3d2+    1 3d0  
                                   1 3d2+    1 3d0     1 3d2+    1 3d0     1 3d2+    1 3d0     1 3d2+    1 3d0     1 3d2+    1 3d0  
                                   1 3d2+    1 3d0     1 3d2+    1 3d0     1 3d2+    1 4f0     1 4f2+    1 4f0     1 4f2+    1 4f0  
                                   1 4f2+    1 4f0     1 4f2+    1 4f0     1 4f2+    1 4f0     1 4f2+    1 5g0     1 5g4+    1 5g2+ 
                                   1 5g0     1 5g4+    1 5g2+    1 5g0     1 5g4+    1 5g2+    1 5g0     1 5g4+    1 5g2+    1 6h2+ 
                                   1 6h4+    1 6h0     2 1s      2 1s      2 1s      2 1s      2 1s      2 1s      2 1s      2 1s   
                                   2 1s      2 1s      2 1s      2 1s      2 1s      2 1s      2 1s      2 1s      2 2pz     2 2pz  
                                   2 2pz     2 2pz     2 2pz     2 2pz     2 2pz     2 2pz     2 2pz     2 2pz     2 3d0     2 3d2+ 
                                   2 3d0     2 3d2+    2 3d0     2 3d2+    2 3d0     2 3d2+    2 3d0     2 3d2+    2 3d0     2 3d2+ 
                                   2 4f0     2 4f2+    2 4f0     2 4f2+    2 4f0     2 4f2+    2 4f0     2 4f2+    2 5g0     2 5g4+ 
                                   2 5g2+    2 5g0     2 5g4+    2 5g2+ 

   1.1   2 -1174.9735-2582.1003  0.000038  0.000101  0.000255  0.000513  0.000948  0.001629  0.002768  0.004698  0.008178  0.014624
                                 0.027015  0.051026  0.096349  0.172240  0.264453  0.295896  0.189249  0.048777  0.003735 -0.000136
                                 0.000312 -0.000322  0.000159 -0.000095  0.000054 -0.000028  0.000022 -0.000015  0.000006 -0.000007
                                -0.000000  0.000000  0.000000  0.000000  0.000000  0.000000  0.000000  0.000000  0.000000  0.000000
                                 0.000000  0.000000 -0.000000 -0.000000 -0.000000  0.000000 -0.000000  0.000000 -0.000000  0.000000
                                -0.000001  0.000001 -0.000001 -0.000000 -0.000002  0.000000 -0.000000 -0.000000  0.000000 -0.000000
                                -0.000000 -0.000000 -0.000000  0.000000  0.000000  0.000000 -0.000000 -0.000000  0.000000 -0.000000
                                -0.000000  0.000000  0.000000 -0.000000 -0.000000  0.000000  0.000000 -0.000000 -0.000000  0.000001
                                 0.000000 -0.000001 -0.000000  0.000001  0.000000 -0.000000 -0.000000 -0.000000  0.000000  0.000000
                                -0.000000 -0.000001  0.000000  0.000000 -0.000000  0.000000 -0.000000 -0.000000  0.000000  0.000000
                                -0.000000 -0.000000  0.000000 -0.000000 -0.000000 -0.000000 -0.000000 -0.000000  0.000000  0.000000
                                 0.000000 -0.000000 -0.000000 -0.000000  0.000000  0.000000  0.000000 -0.000000 -0.000000 -0.000000
                                 0.000000  0.000000 -0.000000  0.000000 -0.000000  0.000000 -0.000000 -0.000000 -0.000000 -0.000001
                                 0.000000  0.000000  0.000000  0.000000  0.000001  0.000000  0.000000  0.000005 -0.000000 -0.000001
                                 0.000000 -0.000000 -0.000000 -0.000000  0.000001  0.000000  0.000000 -0.000001  0.000000 -0.000000
                                -0.000000  0.000000 -0.000000 -0.000000 -0.000000  0.000000  0.000000  0.000000  0.000000  0.000000
                                -0.000000 -0.000000  0.000000 -0.000000  0.000000  0.000000  0.000000 -0.000000 -0.000000  0.000000
                                -0.000000 -0.000000 -0.000000  0.000000

   2.1   2  -183.7716 -538.3926 -0.000013 -0.000035 -0.000088 -0.000178 -0.000328 -0.000566 -0.000964 -0.001643 -0.002878 -0.005194
                                -0.009735 -0.018823 -0.037012 -0.071093 -0.124484 -0.173117 -0.132617  0.093714  0.406800  0.440606
                                 0.199632  0.034350  0.002079  0.000179 -0.000246 -0.000005 -0.000034  0.000023 -0.000009  0.000010
                                 0.000000 -0.000000 -0.000000 -0.000000 -0.000000 -0.000000 -0.000000 -0.000000 -0.000001 -0.000003
                                -0.000008 -0.000020 -0.000035 -0.000051 -0.000052 -0.000017 -0.000002 -0.000001 -0.000001 -0.000001
                                 0.000001 -0.000002  0.000001  0.000001  0.000003 -0.000001  0.000000 -0.000000  0.000000 -0.000000
                                 0.000000 -0.000000 -0.000000 -0.000000  0.000000 -0.000000 -0.000000 -0.000002  0.000000 -0.000007
                                 0.000000 -0.000002  0.000000  0.000000  0.000000 -0.000001  0.000000 -0.000000  0.000000 -0.000001
                                -0.000000  0.000001 -0.000000 -0.000001 -0.000000  0.000000 -0.000000  0.000001 -0.000000 -0.000000
                                 0.000000  0.000001 -0.000000 -0.000000  0.000000 -0.000001  0.000000 -0.000000  0.000000 -0.000000
                                -0.000000  0.000000 -0.000000  0.000000  0.000000  0.000000 -0.000000  0.000000 -0.000000  0.000000
                                -0.000000  0.000000 -0.000000  0.000000 -0.000000  0.000000 -0.000000  0.000000 -0.000000  0.000000
                                -0.000000 -0.000000 -0.000000 -0.000000 -0.000000 -0.000000  0.000000  0.000000  0.000000  0.000001
                                -0.000000 -0.000000  0.000000  0.000000 -0.000001 -0.000000 -0.000000 -0.000007  0.000000  0.000002
                                -0.000000 -0.000000 -0.000001 -0.000000 -0.000002 -0.000000 -0.000000  0.000001 -0.000000 -0.000000
                                 0.000000  0.000000  0.000001 -0.000000  0.000000 -0.000000 -0.000000 -0.000000  0.000000  0.000000
                                -0.000000 -0.000000 -0.000000  0.000000 -0.000000  0.000000 -0.000000 -0.000000  0.000000 -0.000000
                                 0.000000  0.000000  0.000000 -0.000000

   3.1   2  -164.8133 -509.5868 -0.000000 -0.000000 -0.000000 -0.000000 -0.000000 -0.000000 -0.000000 -0.000000 -0.000000 -0.000001
                                -0.000002 -0.000003 -0.000006 -0.000011 -0.000020 -0.000028 -0.000021  0.000019  0.000063  0.000058
                                 0.000038  0.000017 -0.000000 -0.000002 -0.000006  0.000001  0.000014 -0.000035  0.000024  0.000012
                                 0.000001 -0.000000  0.000007  0.000025  0.000082  0.000250  0.000751  0.002256  0.006793  0.019897
                                 0.054256  0.128816  0.244440  0.333598  0.273258  0.109676  0.016983  0.000814  0.000061 -0.000150
                                 0.000009 -0.000033  0.000007  0.000019  0.000003  0.000000 -0.000000 -0.000000 -0.000000 -0.000000
                                 0.000000 -0.000000 -0.000000 -0.000000  0.000000 -0.000001 -0.000000 -0.000006 -0.000000 -0.000014
                                -0.000000 -0.000005 -0.000000  0.000000 -0.000000 -0.000001 -0.000000 -0.000001 -0.000000 -0.000002
                                 0.000000  0.000001  0.000000  0.000001  0.000000 -0.000008 -0.000000  0.000012  0.000000  0.000005
                                -0.000000  0.000001  0.000000  0.000000 -0.000000 -0.000002 -0.000000  0.000002  0.000000 -0.000001
                                -0.000000 -0.000002  0.000000  0.000005 -0.000000  0.000001  0.000000 -0.000000 -0.000000  0.000000
                                -0.000000  0.000000  0.000000 -0.000000 -0.000000 -0.000000  0.000001  0.000000  0.000000 -0.000000
                                 0.000000 -0.000000 -0.000000  0.000000 -0.000000  0.000000 -0.000000 -0.000002 -0.000006 -0.000011
                                 0.000002 -0.000003  0.000001 -0.000020  0.000012  0.000005  0.000001 -0.000009 -0.000000 -0.000005
                                -0.000000  0.000001 -0.000004  0.000001  0.000005  0.000000  0.000000  0.000001 -0.000000  0.000000
                                 0.000000 -0.000000  0.000006  0.000000  0.000000 -0.000000 -0.000000  0.000000  0.000002 -0.000000
                                 0.000000  0.000000 -0.000002 -0.000000 -0.000000  0.000000 -0.000003  0.000000 -0.000000 -0.000000
                                -0.000000  0.000001  0.000000  0.000000

   4.1   2   -38.1221 -188.1417  0.000006  0.000016  0.000039  0.000079  0.000146  0.000252  0.000430  0.000733  0.001285  0.002324
                                 0.004363  0.008469  0.016744  0.032543  0.058121  0.083996  0.067228 -0.060140 -0.315062 -0.449682
                                -0.199332  0.377998  0.694581  0.292667  0.023232  0.002208 -0.000419  0.000303 -0.000120  0.000195
                                 0.000009 -0.000003  0.000000  0.000000  0.000000  0.000000  0.000000  0.000001  0.000003  0.000008
                                 0.000023  0.000056  0.000109  0.000159  0.000124 -0.000131 -0.000359 -0.000434 -0.000072  0.000020
                                 0.000058 -0.000118  0.000082  0.000044  0.000068 -0.000013  0.000003 -0.000000 -0.000000 -0.000000
                                 0.000000 -0.000000  0.000000 -0.000000  0.000000 -0.000001  0.000000 -0.000003  0.000000  0.000001
                                 0.000000 -0.000016  0.000000 -0.000015  0.000000 -0.000093  0.000000 -0.000016  0.000000 -0.000020
                                -0.000000  0.000039 -0.000000 -0.000064 -0.000000  0.000012 -0.000000  0.000047 -0.000000 -0.000004
                                 0.000000  0.000028  0.000000 -0.000006 -0.000000 -0.000042  0.000000  0.000046 -0.000000 -0.000039
                                 0.000000  0.000015 -0.000000  0.000010 -0.000000  0.000003  0.000000  0.000000  0.000000  0.000000
                                -0.000009  0.000000 -0.000000  0.000008 -0.000000  0.000000 -0.000001  0.000000  0.000000 -0.000000
                                 0.000000 -0.000001  0.000000  0.000000  0.000000  0.000000 -0.000000 -0.000003 -0.000016 -0.000037
                                 0.000011 -0.000014 -0.000038 -0.000050  0.000039  0.000012  0.000002 -0.000144 -0.000000 -0.000062
                                -0.000001  0.000023  0.000011  0.000012  0.000064  0.000001  0.000000  0.000028 -0.000003  0.000000
                                -0.000002 -0.000000  0.000023  0.000000  0.000001  0.000000 -0.000000  0.000000  0.000006 -0.000000
                                 0.000002  0.000000 -0.000016 -0.000000 -0.000000 -0.000000 -0.000012 -0.000000  0.000002  0.000000
                                -0.000000  0.000009 -0.000000  0.000000

   5.1   2   -31.7931 -176.9718  0.000000  0.000000  0.000000  0.000000  0.000000  0.000000  0.000000  0.000001  0.000001  0.000002
                                 0.000003  0.000007  0.000013  0.000026  0.000046  0.000067  0.000053 -0.000048 -0.000260 -0.000312
                                -0.000220  0.000353  0.000469  0.000203  0.000169  0.000080 -0.000234  0.000324 -0.000075 -0.000097
                                -0.000003  0.000000 -0.000003 -0.000012 -0.000038 -0.000117 -0.000352 -0.001063 -0.003214 -0.009529
                                -0.026455 -0.065082 -0.129144 -0.186301 -0.121366  0.129710  0.426350  0.427856  0.146443  0.014323
                                 0.000668  0.000214  0.000048 -0.000127 -0.000026  0.000002 -0.000001 -0.000000  0.000000 -0.000000
                                -0.000000 -0.000000  0.000000 -0.000001 -0.000000 -0.000002  0.000000 -0.000004 -0.000000 -0.000002
                                 0.000000 -0.000038 -0.000000 -0.000057  0.000000 -0.000174 -0.000000 -0.000100  0.000000  0.000028
                                -0.000000  0.000018  0.000000 -0.000053 -0.000000  0.000089  0.000000 -0.000047 -0.000000 -0.000050
                                 0.000000 -0.000002 -0.000000 -0.000001 -0.000000 -0.000057 -0.000000  0.000031 -0.000000 -0.000029
                                -0.000000  0.000046 -0.000000 -0.000040  0.000000 -0.000007  0.000000 -0.000007  0.000000 -0.000000
                                 0.000004  0.000000 -0.000000  0.000007 -0.000000  0.000000 -0.000013  0.000000  0.000000  0.000000
                                 0.000000  0.000001  0.000000 -0.000000  0.000000 -0.000000  0.000000  0.000008  0.000032  0.000066
                                -0.000011  0.000024 -0.000051  0.000074 -0.000069 -0.000025 -0.000004  0.000047 -0.000000 -0.000003
                                 0.000003  0.000004  0.000076  0.000039  0.000004  0.000000  0.000000 -0.000002  0.000001  0.000000
                                -0.000009  0.000000 -0.000050 -0.000000 -0.000000 -0.000000  0.000000  0.000000 -0.000025 -0.000000
                                 0.000001 -0.000000  0.000006  0.000000 -0.000000  0.000000  0.000014  0.000000  0.000001  0.000000
                                 0.000000  0.000001 -0.000000 -0.000000

   6.1   2   -22.2021 -162.2083 -0.000000  0.000000  0.000000  0.000000  0.000000  0.000000  0.000000  0.000000  0.000000  0.000000
                                 0.000000  0.000000  0.000000  0.000000  0.000000  0.000000  0.000000 -0.000000  0.000000 -0.000000
                                 0.000000 -0.000000  0.000000 -0.000000  0.000000 -0.000000  0.000000 -0.000000  0.000000  0.000000
                                 0.000000 -0.000000 -0.000000 -0.000000 -0.000000 -0.000000 -0.000000 -0.000000 -0.000000 -0.000000
                                -0.000000 -0.000000 -0.000000 -0.000000 -0.000000  0.000000  0.000000  0.000000 -0.000000  0.000000
                                 0.000000 -0.000000  0.000000  0.000000  0.000000  0.000000 -0.000000  0.000000  0.000020  0.000000
                                 0.000159  0.000000  0.000981  0.000000  0.004658  0.000000  0.017746  0.000000  0.053447  0.000000
                                 0.129567  0.000000  0.235254  0.000000  0.313952  0.000000  0.288634  0.000000  0.151066  0.000000
                                 0.037294  0.000000  0.002330  0.000000  0.000421 -0.000000 -0.000190  0.000000  0.000097 -0.000000
                                -0.000074  0.000000  0.000037 -0.000000 -0.000010 -0.000000 -0.000050  0.000000  0.000043 -0.000000
                                -0.000012  0.000000  0.000009  0.000000 -0.000003  0.000000  0.000002 -0.000000  0.000000 -0.000018
                                 0.000000 -0.000000  0.000004 -0.000000 -0.000000 -0.000005  0.000000  0.000000  0.000003 -0.000003
                                 0.000000 -0.000000  0.000000  0.000000  0.000000  0.000000  0.000000  0.000000  0.000000  0.000000
                                 0.000000  0.000000 -0.000000 -0.000000  0.000000  0.000000  0.000000 -0.000000 -0.000000 -0.000000
                                -0.000000  0.000000  0.000000  0.000000  0.000000  0.000000  0.000000  0.000000  0.000000 -0.000000
                                -0.000000 -0.000002 -0.000000 -0.000003 -0.000000 -0.000000  0.000000  0.000000 -0.000000 -0.000002
                                -0.000000  0.000000  0.000000  0.000001 -0.000000  0.000000 -0.000000  0.000001 -0.000000  0.000000
                                -0.000001 -0.000000 -0.000000 -0.000001

   7.1   2   -22.1987 -162.2284  0.000000  0.000000  0.000000  0.000000  0.000000  0.000000  0.000000  0.000000  0.000000  0.000000
                                 0.000001  0.000002  0.000003  0.000006  0.000011  0.000017  0.000013 -0.000011 -0.000075 -0.000095
                                -0.000067  0.000230  0.000165 -0.000120 -0.000007 -0.000019 -0.000006 -0.000056  0.000122  0.000186
                                 0.000049 -0.000013 -0.000000 -0.000000 -0.000000 -0.000000 -0.000000 -0.000000 -0.000001 -0.000004
                                -0.000011 -0.000028 -0.000055 -0.000081 -0.000034  0.000083  0.000290  0.000037 -0.000104  0.000070
                                 0.000006 -0.000029  0.000048  0.000141  0.000076  0.000001 -0.000001  0.000020 -0.000000  0.000159
                                -0.000000  0.000981 -0.000000  0.004658 -0.000000  0.017747 -0.000000  0.053450 -0.000000  0.129577
                                -0.000000  0.235268 -0.000000  0.313977 -0.000000  0.288610 -0.000000  0.151032 -0.000000  0.037309
                                -0.000000  0.002311 -0.000000  0.000421 -0.000000 -0.000190  0.000000  0.000166 -0.000000 -0.000049
                                 0.000000  0.000066 -0.000000 -0.000010  0.000000 -0.000142  0.000000  0.000117 -0.000000 -0.000054
                                 0.000000  0.000033 -0.000000  0.000011  0.000000  0.000015 -0.000000 -0.000027  0.000000  0.000000
                                 0.000003 -0.000000 -0.000000  0.000002  0.000000  0.000000  0.000007 -0.000000 -0.000000  0.000000
                                -0.000000 -0.000001 -0.000000  0.000000 -0.000000  0.000000 -0.000000 -0.000009 -0.000035 -0.000067
                                 0.000011  0.000001 -0.000043 -0.000158  0.000073  0.000027  0.000005 -0.000200 -0.000002 -0.000201
                                -0.000003  0.000015  0.000034  0.000049  0.000203  0.000003  0.000000  0.000018  0.000001  0.000000
                                -0.000015  0.000000  0.000007  0.000000 -0.000000  0.000000  0.000000 -0.000000  0.000005  0.000000
                                 0.000004 -0.000000  0.000002 -0.000000 -0.000000 -0.000000 -0.000010 -0.000000 -0.000000 -0.000000
                                 0.000000  0.000002  0.000000  0.000000

   8.1   2   -20.5432  -70.8398  0.000000  0.000000  0.000000  0.000000  0.000000  0.000000  0.000000  0.000000  0.000000  0.000000
                                 0.000000  0.000000  0.000000  0.000001  0.000001  0.000004 -0.000002  0.000008 -0.000032  0.000038
                                -0.000104  0.000172 -0.000178  0.000295 -0.000377  0.000402 -0.002146  0.003903 -0.001902 -0.004158
                                -0.000389  0.000093 -0.000000 -0.000000 -0.000000 -0.000000 -0.000000 -0.000000 -0.000000 -0.000000
                                -0.000001 -0.000001 -0.000008  0.000004 -0.000027  0.000054 -0.000065  0.000163 -0.000202  0.000213
                                -0.000517  0.000496  0.001308 -0.003507 -0.001234  0.000074 -0.000009  0.000000 -0.000000 -0.000000
                                -0.000000  0.000000 -0.000000 -0.000000 -0.000000  0.000001 -0.000000 -0.000001 -0.000000  0.000004
                                -0.000000 -0.000009 -0.000000  0.000022 -0.000000 -0.000040 -0.000000  0.000074 -0.000000 -0.000127
                                -0.000000  0.000153 -0.000000 -0.000282 -0.000000  0.000983 -0.000000 -0.000471  0.000000 -0.001289
                                -0.000000 -0.000256  0.000000 -0.000016 -0.000000 -0.000005  0.000000  0.000021  0.000000 -0.000020
                                -0.000000  0.000398  0.000000 -0.000286 -0.000000 -0.000331  0.000000  0.000003 -0.000000  0.000000
                                 0.000016 -0.000000 -0.000000  0.000126 -0.000000 -0.000000 -0.000083  0.000000 -0.000000 -0.000000
                                -0.000000 -0.000009  0.000199  0.000889  0.003933  0.015654  0.052441  0.139568  0.286746  0.375244
                                 0.218290  0.018608 -0.004113  0.005162  0.026474  0.016109  0.004060  0.003147  0.000092  0.012521
                                -0.000722 -0.000488  0.000882 -0.000968 -0.013099 -0.000211 -0.000026 -0.000353  0.000150  0.000000
                                 0.000038 -0.000000 -0.000539  0.000000  0.000023  0.000000  0.000000  0.000000 -0.000137  0.000000
                                -0.000063  0.000000  0.000113 -0.000000 -0.000003  0.000000  0.000206  0.000000  0.000019  0.000000
                                -0.000000 -0.000064  0.000000 -0.000000

   9.1   2    -7.1355  -79.5855 -0.000003 -0.000007 -0.000017 -0.000035 -0.000065 -0.000112 -0.000192 -0.000327 -0.000573 -0.001036
                                -0.001947 -0.003781 -0.007487 -0.014579 -0.026165 -0.038083 -0.030871  0.028961  0.158010  0.240314
                                 0.111466 -0.260638 -0.757903 -0.304384  0.691814  0.693354  0.113265 -0.017333  0.004525 -0.003700
                                -0.000181  0.000065  0.000000  0.000000  0.000000  0.000000  0.000000  0.000001  0.000004  0.000012
                                 0.000034  0.000084  0.000171  0.000242  0.000147 -0.000233 -0.000731 -0.000783 -0.000104  0.000823
                                 0.003173 -0.000367 -0.001422  0.000085 -0.001227  0.000253 -0.000061 -0.000000 -0.000000 -0.000000
                                -0.000000 -0.000000 -0.000000 -0.000000 -0.000000 -0.000001 -0.000000 -0.000003 -0.000000 -0.000011
                                -0.000000 -0.000008 -0.000000 -0.000024 -0.000000  0.000037 -0.000000  0.000033 -0.000000  0.000242
                                -0.000000 -0.000233 -0.000000 -0.000042 -0.000000 -0.000711  0.000000 -0.000043 -0.000000  0.000281
                                 0.000000 -0.000442 -0.000000  0.000112  0.000000  0.000044  0.000000  0.000063 -0.000000 -0.000147
                                 0.000000 -0.000281 -0.000000  0.000200 -0.000000 -0.000008  0.000000 -0.000046  0.000000  0.000000
                                 0.000086 -0.000000  0.000000 -0.000008 -0.000000 -0.000000  0.000075  0.000000  0.000000 -0.000000
                                 0.000000  0.000092 -0.000000 -0.000001 -0.000003 -0.000011 -0.000035 -0.000055 -0.000031  0.000001
                                -0.000338  0.000239  0.001265  0.001023 -0.000429 -0.000167 -0.000028  0.003029  0.000020  0.002501
                                -0.000197 -0.000674 -0.001653 -0.001285 -0.002595 -0.000046 -0.000006 -0.000661  0.000026  0.000000
                                 0.000516  0.000000  0.000907 -0.000000  0.000012 -0.000000 -0.000000  0.000000  0.000327 -0.000000
                                -0.000090  0.000000 -0.000387  0.000000 -0.000000  0.000000 -0.000156  0.000000  0.000105  0.000000
                                -0.000000  0.000101 -0.000000  0.000000

  10.1   2    -5.0842  -73.0025  0.000000  0.000000  0.000000  0.000000  0.000000  0.000001  0.000001  0.000002  0.000003  0.000005
                                 0.000010  0.000020  0.000038  0.000076  0.000134  0.000200  0.000152 -0.000130 -0.000872 -0.001186
                                -0.000747  0.001720  0.003944  0.002184 -0.006870 -0.001749  0.004823 -0.007009 -0.006178  0.000304
                                -0.000218  0.000102  0.000001  0.000005  0.000017  0.000050  0.000151  0.000458  0.001386  0.004118
                                 0.011471  0.028431  0.056919  0.083300  0.049786 -0.084086 -0.273021 -0.306917  0.118336  0.548762
                                 0.440940  0.095015 -0.003106  0.000470  0.000314  0.000026  0.000008 -0.000000  0.000000 -0.000000
                                -0.000000 -0.000002  0.000000 -0.000010 -0.000000 -0.000040  0.000000 -0.000123 -0.000000 -0.000305
                                 0.000000 -0.000537 -0.000000 -0.000698  0.000000 -0.000438  0.000000  0.000455  0.000000  0.001586
                                -0.000000  0.002280 -0.000000  0.001604 -0.000000 -0.002500 -0.000000 -0.001186  0.000000  0.000581
                                -0.000000  0.000262 -0.000000  0.000027  0.000000 -0.000136  0.000000 -0.000493  0.000000 -0.000067
                                 0.000000 -0.000578  0.000000 -0.000046  0.000000  0.000370  0.000000 -0.000056  0.000000 -0.000000
                                 0.000136  0.000000 -0.000000 -0.000185  0.000000  0.000000  0.000179  0.000000 -0.000000  0.000000
                                 0.000000  0.000214 -0.000001 -0.000003 -0.000012 -0.000049 -0.000155 -0.000257 -0.000190 -0.000040
                                -0.001680  0.002128  0.005536  0.005478 -0.001891 -0.000701 -0.000117  0.001501  0.000069  0.008329
                                -0.001139 -0.003465 -0.006002 -0.004709 -0.008764 -0.000176 -0.000027 -0.000616  0.000192 -0.000000
                                 0.001930  0.000000  0.002743 -0.000000  0.000040  0.000000 -0.000000 -0.000000  0.001216 -0.000000
                                -0.000315  0.000000 -0.001184  0.000000 -0.000001 -0.000000 -0.000462  0.000000  0.000275  0.000000
                                 0.000000  0.000303 -0.000000 -0.000000

  11.1   2    -2.0266  -58.9485  0.000000  0.000000  0.000000  0.000001  0.000001  0.000002  0.000003  0.000006  0.000010  0.000019
                                 0.000036  0.000069  0.000137  0.000266  0.000479  0.000694  0.000572 -0.000550 -0.002892 -0.004588
                                -0.001922  0.004685  0.016493  0.004929 -0.014008 -0.031133  0.015058 -0.012016 -0.014658 -0.007187
                                -0.002201  0.000820 -0.000000 -0.000000 -0.000000 -0.000001 -0.000004 -0.000013 -0.000039 -0.000119
                                -0.000324 -0.000824 -0.001599 -0.002461 -0.001246  0.002097  0.008746  0.007941 -0.002246 -0.021246
                                -0.013910  0.001279 -0.017454 -0.002641 -0.001188  0.000258  0.000049 -0.000008  0.000000 -0.000061
                                 0.000000 -0.000375  0.000000 -0.001785  0.000000 -0.006845  0.000000 -0.020783  0.000000 -0.051202
                                 0.000000 -0.092681  0.000000 -0.119196  0.000000 -0.086923  0.000000  0.071651 -0.000000  0.281172
                                -0.000000  0.370947 -0.000000  0.286745 -0.000000  0.102675 -0.000000  0.014309 -0.000000  0.001949
                                -0.000000  0.000502 -0.000000  0.000223  0.000000  0.001058 -0.000000  0.000942 -0.000000  0.005516
                                -0.000000  0.000238 -0.000000  0.001133 -0.000000  0.001159 -0.000000 -0.000094  0.000000  0.000000
                                 0.001217  0.000000  0.000000 -0.000023 -0.000000 -0.000000  0.000611 -0.000000 -0.000000  0.000000
                                -0.000000  0.000553 -0.000008 -0.000037 -0.000165 -0.000664 -0.002243 -0.005939 -0.013319 -0.025390
                                -0.020975  0.045565  0.089467  0.046498 -0.002085 -0.001824 -0.000382  0.014828  0.000430  0.046215
                                -0.014994 -0.036748 -0.049441 -0.027945 -0.050542 -0.001359 -0.000243 -0.004059  0.001343  0.000000
                                 0.009698 -0.000000  0.016424  0.000000  0.000193 -0.000000  0.000002  0.000000  0.006516  0.000000
                                -0.001120  0.000000 -0.005072  0.000000 -0.000007  0.000000 -0.003232 -0.000000  0.000850 -0.000000
                                -0.000000  0.001237  0.000000  0.000000

  12.1   2    -1.9848  -60.6380 -0.000000  0.000000  0.000000  0.000000  0.000000 -0.000000  0.000000 -0.000000  0.000000 -0.000000
                                 0.000000 -0.000000  0.000000 -0.000000  0.000000 -0.000000  0.000000 -0.000000  0.000000 -0.000000
                                 0.000000 -0.000000  0.000000 -0.000000  0.000000 -0.000000  0.000000  0.000000  0.000000 -0.000000
                                -0.000000  0.000000 -0.000000 -0.000000 -0.000000 -0.000000 -0.000000 -0.000000 -0.000000 -0.000000
                                -0.000000 -0.000000 -0.000000 -0.000000  0.000000 -0.000000  0.000000 -0.000000  0.000000 -0.000000
                                 0.000000  0.000000  0.000000 -0.000000 -0.000000  0.000000 -0.000000 -0.000000 -0.000008 -0.000000
                                -0.000063 -0.000000 -0.000392 -0.000000 -0.001865 -0.000000 -0.007149 -0.000000 -0.021715 -0.000000
                                -0.053475 -0.000000 -0.096856 -0.000000 -0.124422 -0.000000 -0.090934  0.000000  0.075587  0.000000
                                 0.293465  0.000000  0.391201 -0.000000  0.294798  0.000000  0.113272 -0.000000  0.015257 -0.000000
                                 0.000377 -0.000000  0.000251  0.000000 -0.000022 -0.000000  0.000259 -0.000000  0.000373  0.000000
                                 0.001965  0.000000  0.000567 -0.000000 -0.000575 -0.000000  0.000060  0.000000 -0.000000 -0.000106
                                 0.000000  0.000000 -0.000232 -0.000000  0.000000 -0.000273 -0.000000  0.000000 -0.000043 -0.000079
                                -0.000000  0.000000 -0.000000 -0.000000 -0.000000 -0.000000 -0.000000 -0.000000 -0.000000 -0.000000
                                 0.000000 -0.000000  0.000000  0.000000  0.000000  0.000000  0.000000  0.000000  0.000000  0.000000
                                 0.000000 -0.000000  0.000000  0.000000 -0.000000 -0.000000 -0.000000 -0.000000 -0.000000  0.000073
                                 0.000000  0.000730 -0.000000  0.000823  0.000000  0.000017 -0.000000 -0.000000 -0.000000 -0.000129
                                -0.000000 -0.000127  0.000000 -0.000683  0.000000 -0.000001  0.000000 -0.000006  0.000000 -0.000000
                                 0.000204 -0.000000  0.000000  0.000179

  13.1   2    -1.3478  -31.5980 -0.000000 -0.000001 -0.000002 -0.000005 -0.000009 -0.000015 -0.000026 -0.000045 -0.000078 -0.000142
                                -0.000266 -0.000517 -0.001025 -0.001994 -0.003589 -0.005213 -0.004270  0.004079  0.021915  0.034263
                                 0.015377 -0.037575 -0.124715 -0.042397  0.135389  0.215681  0.010580 -0.159691 -0.070707  0.033583
                                 0.007817 -0.002490  0.000000  0.000001  0.000002  0.000006  0.000019  0.000058  0.000174  0.000518
                                 0.001439  0.003581  0.007151  0.010549  0.006100 -0.010863 -0.036619 -0.040360  0.021182  0.089249
                                 0.084680 -0.035877 -0.056616  0.000041  0.011974 -0.001549  0.000130 -0.000002  0.000000 -0.000018
                                -0.000000 -0.000108 -0.000000 -0.000517 -0.000000 -0.001977 -0.000000 -0.006027 -0.000000 -0.014796
                                -0.000000 -0.026916 -0.000000 -0.034289 -0.000000 -0.025246 -0.000000  0.023246  0.000000  0.082733
                                 0.000000  0.116309  0.000000  0.073712  0.000000  0.023008  0.000000 -0.006270  0.000000  0.000786
                                -0.000000  0.001699  0.000000 -0.000594 -0.000000 -0.003671 -0.000000 -0.004299 -0.000000 -0.012879
                                -0.000000 -0.011233 -0.000000 -0.007744  0.000000 -0.000616 -0.000000 -0.000407  0.000000  0.000000
                                -0.003607  0.000000 -0.000000 -0.002293  0.000000 -0.000000 -0.001584 -0.000000 -0.000000  0.000000
                                -0.000000 -0.001034  0.000039  0.000173  0.000769  0.003072  0.010612  0.031494  0.079171  0.158111
                                 0.092095 -0.223557 -0.474416 -0.267377 -0.029606 -0.004243 -0.000197 -0.058692 -0.000555 -0.055284
                                 0.023941  0.055438  0.098027  0.070462  0.061806  0.001914  0.000359  0.011637 -0.000714  0.000000
                                -0.009734 -0.000000 -0.029304  0.000000 -0.000183  0.000000  0.000004  0.000000 -0.015546  0.000000
                                 0.000390  0.000000  0.005286  0.000000  0.000002  0.000000  0.006728 -0.000000 -0.000153  0.000000
                                -0.000000 -0.001592 -0.000000  0.000000

  14.1   2    -0.7398  -28.3905 -0.000001 -0.000002 -0.000005 -0.000010 -0.000018 -0.000032 -0.000054 -0.000092 -0.000162 -0.000293
                                -0.000551 -0.001069 -0.002120 -0.004126 -0.007418 -0.010797 -0.008805  0.008371  0.045604  0.070672
                                 0.032799 -0.079856 -0.259867 -0.092295  0.298868  0.469658  0.098869 -0.463445 -0.505580 -0.114553
                                 0.001791 -0.001685 -0.000000 -0.000000 -0.000000 -0.000001 -0.000003 -0.000009 -0.000028 -0.000081
                                -0.000230 -0.000556 -0.001150 -0.001606 -0.001100  0.002033  0.005266  0.007500 -0.005291 -0.013484
                                -0.013088  0.000621  0.056854  0.050450  0.007660 -0.002001  0.000385 -0.000000  0.000000 -0.000001
                                -0.000000 -0.000004  0.000000 -0.000018 -0.000000 -0.000067  0.000000 -0.000209  0.000000 -0.000499
                                 0.000000 -0.000940  0.000000 -0.001128  0.000000 -0.000948  0.000000  0.001130 -0.000000  0.002380
                                -0.000000  0.006446 -0.000000 -0.002473 -0.000000  0.009491  0.000000  0.007410 -0.000000  0.003442
                                 0.000000  0.002028 -0.000000 -0.000954  0.000000 -0.000829  0.000000 -0.000367  0.000000 -0.003604
                                 0.000000 -0.000505  0.000000 -0.002014 -0.000000 -0.002340  0.000000 -0.000128  0.000000  0.000000
                                -0.001861  0.000000  0.000000 -0.001273 -0.000000  0.000000 -0.000305 -0.000000  0.000000 -0.000000
                                -0.000000 -0.000631 -0.000017 -0.000078 -0.000345 -0.001374 -0.004793 -0.014877 -0.038932 -0.079297
                                -0.040840  0.111023  0.241751  0.205806  0.021010  0.004351  0.000465  0.014845 -0.001378 -0.138169
                                 0.066577  0.151840  0.180781  0.088502  0.155649  0.004907  0.000930  0.007487 -0.001763 -0.000000
                                -0.009450  0.000000 -0.016541 -0.000000 -0.000183  0.000000 -0.000004 -0.000000 -0.009229 -0.000000
                                 0.000682 -0.000000  0.003117 -0.000000  0.000005 -0.000000  0.003960  0.000000 -0.000249 -0.000000
                                 0.000000 -0.001018  0.000000 -0.000000

  15.1   2    -0.5199  -26.6768 -0.000000 -0.000001 -0.000002 -0.000003 -0.000006 -0.000010 -0.000017 -0.000030 -0.000052 -0.000094
                                -0.000177 -0.000343 -0.000680 -0.001325 -0.002379 -0.003470 -0.002814  0.002658  0.014721  0.022543
                                 0.010908 -0.026447 -0.082649 -0.032524  0.105464  0.138807  0.085095 -0.196512 -0.330432 -0.169398
                                -0.013757  0.004181 -0.000000 -0.000001 -0.000004 -0.000011 -0.000034 -0.000103 -0.000312 -0.000932
                                -0.002588 -0.006447 -0.012865 -0.019011 -0.010922  0.019651  0.066756  0.073294 -0.040539 -0.170502
                                -0.163525  0.075335  0.266390  0.210997  0.028295  0.002616 -0.000071  0.000001  0.000000  0.000008
                                 0.000000  0.000048 -0.000000  0.000232  0.000000  0.000883 -0.000000  0.002699 -0.000000  0.006615
                                -0.000000  0.012066 -0.000000  0.015269 -0.000000  0.011248 -0.000000 -0.011727 -0.000000 -0.037635
                                 0.000000 -0.058258  0.000000 -0.025856  0.000000  0.000484 -0.000000  0.028066  0.000000  0.016168
                                -0.000000  0.002097  0.000000  0.002919 -0.000000  0.005543 -0.000000  0.006399 -0.000000  0.019605
                                -0.000000  0.016424 -0.000000  0.011557  0.000000  0.002911 -0.000000  0.000309 -0.000000 -0.000000
                                 0.004639  0.000000 -0.000000  0.001955 -0.000000 -0.000000  0.001021 -0.000000 -0.000000  0.000000
                                -0.000000  0.001523  0.000005  0.000022  0.000097  0.000383  0.001378  0.004873  0.014021  0.029295
                                 0.010266 -0.036300 -0.075680 -0.126374 -0.012932 -0.003520 -0.000487 -0.012066  0.002236  0.223821
                                -0.108641 -0.248401 -0.316989 -0.201992 -0.252259 -0.007978 -0.001514 -0.027567  0.002059  0.000000
                                 0.014908 -0.000000  0.031400  0.000000  0.000270 -0.000000  0.000001  0.000000  0.023509  0.000000
                                -0.001100  0.000000 -0.006465  0.000000 -0.000005  0.000000 -0.007416 -0.000000  0.000555  0.000000
                                -0.000000  0.001908 -0.000000  0.000000

  16.1   0     0.0154   -6.1554  0.000000  0.000000  0.000001  0.000001  0.000002  0.000003  0.000006  0.000010  0.000017  0.000032
                                 0.000058  0.000116  0.000222  0.000451  0.000769  0.001212  0.000796 -0.000535 -0.005740 -0.005680
                                -0.007186  0.014688  0.019450  0.021360 -0.049896 -0.027739 -0.051246  0.023510 -0.122767  3.301017
                                 3.097929 -2.502358  0.000000  0.000000  0.000000  0.000001  0.000002  0.000007  0.000022  0.000064
                                 0.000187  0.000443  0.000938  0.001263  0.000953 -0.001788 -0.003958 -0.006576  0.005252  0.008278
                                 0.020283 -0.026262 -0.064619  0.732217  2.328948 -1.045528  1.123602 -0.000000 -0.000000 -0.000000
                                 0.000000 -0.000004  0.000000 -0.000012  0.000000 -0.000074  0.000000 -0.000147  0.000000 -0.000571
                                 0.000000 -0.000565  0.000000 -0.001674  0.000000  0.000447 -0.000000 -0.001360  0.000000  0.006424
                                -0.000000 -0.002375  0.000000  0.013727 -0.000000 -0.037889  0.000000  0.151715 -0.000000  0.253074
                                 0.000000  0.666280 -0.000000 -0.185029  0.000000 -0.000525 -0.000000 -0.000452 -0.000000 -0.002222
                                 0.000000 -0.002559 -0.000000  0.074581  0.000000  0.158743 -0.000000 -0.000074 -0.000000  0.000000
                                -0.000000 -0.000000 -0.000000 -0.001316  0.000000  0.000000  0.032529 -0.000000 -0.000000  0.000000
                                 0.000000 -0.000059  0.000000  0.000001  0.000003  0.000021 -0.000005 -0.001071 -0.004947 -0.010932
                                 0.003021 -0.005150  0.008168 -0.735032  0.012056  0.004042  0.000636 -4.334725  0.000032  0.009249
                                 0.006471  0.010160  0.042467  0.291099 -0.007965  0.000163  0.000056  0.919682  0.000046 -0.000000
                                -0.000538  0.000000  0.001153 -0.000000 -0.000006  0.000000  0.000001 -0.000000  0.043807  0.000000
                                 0.000030 -0.000000  0.000035  0.000000 -0.000000  0.000000 -0.017403  0.000000 -0.000462 -0.000000
                                 0.000000  0.002741  0.000000 -0.000000

  17.1   0     0.0248   -6.3748  0.000000  0.000000  0.000000  0.000000  0.000001  0.000001  0.000002  0.000003  0.000007  0.000010
                                 0.000023  0.000037  0.000092  0.000136  0.000339  0.000286  0.000663 -0.001126  0.000157 -0.006948
                                 0.006905 -0.010474  0.029549 -0.021525  0.024153 -0.074104  0.117146 -0.296064  1.001692  0.699877
                                 1.833630 -1.698065  0.000000  0.000000  0.000000  0.000001  0.000003  0.000010  0.000031  0.000090
                                 0.000258  0.000616  0.001299  0.001758  0.001309 -0.002444 -0.005548 -0.008945  0.006826  0.012439
                                 0.025249 -0.044919  0.113738  0.700448  0.208369  0.797039 -1.316268  0.000000 -0.000000  0.000002
                                -0.000000  0.000012 -0.000000  0.000058 -0.000000  0.000212 -0.000000  0.000673 -0.000000  0.001580
                                -0.000000  0.003037 -0.000000  0.003536 -0.000000  0.003130  0.000000 -0.003516 -0.000000 -0.008403
                                 0.000000 -0.014598 -0.000000 -0.010394  0.000000  0.013218 -0.000000  0.203934  0.000000  0.174296
                                -0.000000  0.076283  0.000000  0.170833 -0.000000  0.000530 -0.000000  0.001399 -0.000000 -0.000321
                                 0.000000  0.020888 -0.000000  0.066152  0.000000  0.033728 -0.000000 -0.000070 -0.000000  0.000000
                                 0.001018 -0.000000 -0.000000  0.008781  0.000000  0.000000  0.007736 -0.000000 -0.000000  0.000000
                                 0.000000  0.000665 -0.000003 -0.000011 -0.000051 -0.000201 -0.000728 -0.002631 -0.007565 -0.015326
                                -0.005613  0.016837  0.068043 -0.705036  0.006911  0.002041  0.000296 -1.641306  0.000375  0.052561
                                 0.001308 -0.010131  0.050485  0.529403 -0.053231 -0.000663 -0.000064  0.327405  0.000031 -0.000000
                                 0.000912 -0.000000 -0.034854 -0.000000  0.000006 -0.000000  0.000000 -0.000000 -0.103325  0.000000
                                -0.000170 -0.000000  0.002298  0.000000  0.000001  0.000000  0.003030  0.000000 -0.000438 -0.000000
                                 0.000000  0.000998 -0.000000 -0.000000

                                   1 2px     1 2px     1 2px     1 2px     1 2px     1 2px     1 2px     1 2px     1 2px     1 2px  
                                   1 2px     1 2px     1 2px     1 2px     1 2px     1 2px     1 2px     1 2px     1 2px     1 2px  
                                   1 2px     1 2px     1 2px     1 2px     1 2px     1 3d1+    1 3d1+    1 3d1+    1 3d1+    1 3d1+ 
                                   1 3d1+    1 3d1+    1 3d1+    1 3d1+    1 3d1+    1 3d1+    1 3d1+    1 3d1+    1 3d1+    1 3d1+ 
                                   1 3d1+    1 3d1+    1 3d1+    1 3d1+    1 4f1+    1 4f3+    1 4f1+    1 4f3+    1 4f1+    1 4f3+ 
                                   1 4f1+    1 4f3+    1 4f1+    1 4f3+    1 4f1+    1 4f3+    1 5g1+    1 5g3+    1 5g1+    1 5g3+ 
                                   1 5g1+    1 5g3+    1 5g1+    1 5g3+    1 6h1+    1 6h3+    1 6h5+    2 2px     2 2px     2 2px  
                                   2 2px     2 2px     2 2px     2 2px     2 2px     2 2px     2 2px     2 3d1+    2 3d1+    2 3d1+ 
                                   2 3d1+    2 3d1+    2 3d1+    2 4f1+    2 4f3+    2 4f1+    2 4f3+    2 4f1+    2 4f3+    2 4f1+ 
                                   2 4f3+    2 5g1+    2 5g3+    2 5g1+    2 5g3+ 

   1.2   2  -164.8146 -509.5850  0.000007  0.000025  0.000082  0.000250  0.000751  0.002256  0.006793  0.019897  0.054255  0.128815
                                 0.244435  0.333597  0.273266  0.109676  0.016978  0.000820  0.000058 -0.000141 -0.000002 -0.000020
                                 0.000008 -0.000003  0.000002 -0.000001  0.000000 -0.000000 -0.000000 -0.000000  0.000000  0.000000
                                -0.000002 -0.000007 -0.000006 -0.000003  0.000000  0.000001  0.000000 -0.000000 -0.000000 -0.000001
                                 0.000001 -0.000000  0.000000  0.000000 -0.000002 -0.000000  0.000001 -0.000000 -0.000001  0.000000
                                 0.000000 -0.000000  0.000000  0.000000  0.000000 -0.000000 -0.000000 -0.000000  0.000000  0.000000
                                 0.000000 -0.000000  0.000000  0.000000  0.000000 -0.000000 -0.000000 -0.000000 -0.000001  0.000000
                                 0.000000  0.000000 -0.000000  0.000001  0.000000  0.000000 -0.000000  0.000000 -0.000000 -0.000000
                                -0.000000  0.000000  0.000000 -0.000000 -0.000000  0.000000  0.000000  0.000000  0.000000  0.000000
                                -0.000000  0.000000  0.000000 -0.000000 -0.000000

   2.2   2   -31.7961 -176.9467 -0.000003 -0.000012 -0.000038 -0.000117 -0.000352 -0.001063 -0.003214 -0.009528 -0.026453 -0.065077
                                -0.129132 -0.186286 -0.121366  0.129674  0.426269  0.427934  0.146503  0.014248  0.000731  0.000183
                                -0.000048  0.000013 -0.000010  0.000006 -0.000002 -0.000000 -0.000000 -0.000000 -0.000001 -0.000005
                                -0.000013 -0.000030 -0.000073 -0.000102 -0.000097 -0.000051  0.000002  0.000010 -0.000004  0.000023
                                 0.000006 -0.000008  0.000004 -0.000001 -0.000063 -0.000000  0.000043  0.000000 -0.000028 -0.000000
                                 0.000022  0.000000 -0.000010 -0.000000  0.000002  0.000000 -0.000007  0.000000  0.000000  0.000000
                                 0.000003 -0.000000 -0.000003  0.000000 -0.000001  0.000000  0.000000 -0.000000 -0.000029 -0.000002
                                -0.000001 -0.000013  0.000000  0.000029  0.000000  0.000000 -0.000001  0.000000  0.000002  0.000016
                                 0.000000 -0.000000  0.000001  0.000000 -0.000000 -0.000006  0.000000 -0.000000  0.000000 -0.000007
                                -0.000000 -0.000000 -0.000000  0.000003  0.000000

   3.2   2   -22.1999 -162.2245 -0.000000 -0.000000 -0.000000 -0.000000 -0.000000 -0.000000 -0.000001 -0.000002 -0.000007 -0.000017
                                -0.000033 -0.000046 -0.000027  0.000022  0.000113  0.000131  0.000041  0.000051  0.000003  0.000005
                                 0.000015 -0.000001  0.000013  0.000003 -0.000001  0.000020  0.000159  0.000981  0.004658  0.017748
                                 0.053451  0.129581  0.235273  0.313980  0.288600  0.151023  0.037313  0.002326  0.000413 -0.000186
                                 0.000102 -0.000080  0.000046 -0.000008 -0.000115 -0.000000  0.000094  0.000000 -0.000042  0.000000
                                 0.000026  0.000000 -0.000012 -0.000000  0.000008  0.000000 -0.000025  0.000000  0.000004  0.000000
                                -0.000002 -0.000000  0.000002  0.000000 -0.000002  0.000000  0.000000 -0.000000 -0.000025 -0.000001
                                 0.000003 -0.000011  0.000001  0.000025  0.000000  0.000000 -0.000016 -0.000000  0.000003  0.000011
                                 0.000000 -0.000000  0.000001 -0.000000  0.000000 -0.000007 -0.000000 -0.000000 -0.000000 -0.000002
                                -0.000000  0.000002 -0.000000  0.000003  0.000000

   4.2   2    -5.0809  -72.8619  0.000001  0.000005  0.000017  0.000050  0.000151  0.000458  0.001386  0.004120  0.011473  0.028440
                                 0.056926  0.083336  0.049768 -0.084024 -0.273169 -0.306760  0.117775  0.548779  0.441596  0.096477
                                 0.001490  0.000885 -0.000522  0.000210 -0.000083 -0.000000 -0.000000 -0.000001 -0.000003 -0.000012
                                -0.000037 -0.000096 -0.000155 -0.000215 -0.000108 -0.000033  0.000162  0.001025  0.001488 -0.000624
                                -0.000556 -0.000244 -0.000009 -0.000024 -0.000026  0.000000 -0.000134  0.000000 -0.000175  0.000000
                                -0.000394 -0.000000 -0.000315  0.000000 -0.000034 -0.000000 -0.000053  0.000000 -0.000093  0.000000
                                -0.000150  0.000000 -0.000023  0.000000  0.000080  0.000000 -0.000000 -0.000008 -0.000942  0.000116
                                 0.000334  0.000834  0.000695  0.000987  0.000020  0.000003  0.000115 -0.000027 -0.000449 -0.000728
                                -0.000011  0.000000 -0.000254  0.000083  0.000000  0.000402 -0.000000  0.000000 -0.000000  0.000146
                                -0.000000 -0.000128 -0.000000 -0.000107  0.000000

   5.2   2    -1.9892  -60.6747 -0.000000 -0.000000 -0.000000 -0.000000 -0.000001 -0.000002 -0.000006 -0.000018 -0.000050 -0.000125
                                -0.000246 -0.000373 -0.000200  0.000350  0.001309  0.001313 -0.000595 -0.003635 -0.001266  0.003218
                                -0.005047 -0.005537 -0.000579 -0.000036 -0.000003 -0.000008 -0.000063 -0.000391 -0.001861 -0.007136
                                -0.021667 -0.053387 -0.096627 -0.124273 -0.090565  0.075188  0.293603  0.389313  0.295008  0.109928
                                 0.011614 -0.002538  0.000343 -0.000157  0.000279  0.000000  0.000165  0.000000  0.002401  0.000000
                                -0.000491  0.000000 -0.002236  0.000000 -0.000424 -0.000000 -0.000165  0.000000  0.000182  0.000000
                                -0.000555 -0.000000 -0.000471  0.000000  0.000148  0.000000  0.000000 -0.000139 -0.014931  0.004840
                                 0.011720  0.014980  0.008671  0.016313  0.000435  0.000077  0.000649 -0.000570 -0.004356 -0.006476
                                -0.000094  0.000000 -0.002426  0.000614 -0.000000  0.002882  0.000000  0.000004  0.000000  0.001324
                                 0.000000 -0.000622  0.000000 -0.000852 -0.000000

   6.2   2    -0.5659  -25.6734 -0.000000 -0.000001 -0.000002 -0.000007 -0.000021 -0.000065 -0.000197 -0.000585 -0.001630 -0.004045
                                -0.008111 -0.011894 -0.007005  0.012631  0.041322  0.047008 -0.026796 -0.103955 -0.103828  0.041297
                                 0.185242  0.084477 -0.001925 -0.005604  0.001177  0.000001  0.000008  0.000048  0.000233  0.000883
                                 0.002710  0.006607  0.012130  0.015206  0.011462 -0.011743 -0.037581 -0.055725 -0.031857  0.009367
                                 0.018767 -0.031255  0.003103 -0.006831  0.005150 -0.000000  0.006430 -0.000000  0.017091 -0.000000
                                 0.022656 -0.000000  0.004291  0.000000 -0.010534  0.000000  0.000365 -0.000000  0.004756  0.000000
                                 0.004420 -0.000000 -0.001347  0.000000  0.001617 -0.000000 -0.000000 -0.002260 -0.215042  0.123319
                                 0.274541  0.370873  0.281944  0.246610  0.008531  0.001663  0.039892 -0.002423 -0.017837 -0.049466
                                -0.000365  0.000002 -0.038506  0.000976  0.000000  0.010853  0.000000  0.000011  0.000000  0.011215
                                 0.000000 -0.001097 -0.000000 -0.003500 -0.000000

   7.2   +    -0.3330  -24.5107 -0.000000 -0.000001 -0.000004 -0.000012 -0.000036 -0.000110 -0.000333 -0.000989 -0.002757 -0.006839
                                -0.013722 -0.020106 -0.011866  0.021496  0.070044  0.080028 -0.046610 -0.180031 -0.177336  0.056848
                                 0.416133  0.498010  0.195526  0.008809 -0.000436 -0.000001 -0.000006 -0.000038 -0.000181 -0.000691
                                -0.002104 -0.005173 -0.009402 -0.011982 -0.008653  0.008916  0.030901  0.041865  0.028180 -0.016389
                                -0.065924 -0.049250 -0.028161  0.002686 -0.004241 -0.000000 -0.005857 -0.000000 -0.012818 -0.000000
                                -0.025571 -0.000000 -0.034565  0.000000 -0.011459  0.000000 -0.000245  0.000000 -0.002669  0.000000
                                -0.003391  0.000000 -0.003141 -0.000000 -0.000632  0.000000 -0.000000  0.001205  0.114372 -0.067245
                                -0.150341 -0.202363 -0.169919 -0.131435 -0.004580 -0.000895 -0.047983  0.000061  0.002284  0.011113
                                 0.000039 -0.000003  0.010872  0.000018 -0.000000 -0.002625  0.000000  0.000002  0.000000 -0.003509
                                -0.000000  0.000396 -0.000000  0.001069  0.000000

   8.2   0     0.0221   -5.1378 -0.000000 -0.000000 -0.000000 -0.000001 -0.000003 -0.000010 -0.000032 -0.000086 -0.000268 -0.000581
                                -0.001378 -0.001534 -0.001806  0.003517  0.003431  0.012575 -0.012747 -0.002916 -0.039156  0.044463
                                -0.030891  0.293875 -0.224642  1.091907 -1.727468 -0.000000 -0.000000 -0.000001 -0.000004 -0.000015
                                -0.000050 -0.000109 -0.000230 -0.000229 -0.000274  0.000346  0.000503  0.001241  0.000285 -0.000326
                                 0.013520  0.094509 -0.039584  0.114490 -0.000106 -0.000000 -0.000299 -0.000000 -0.000024 -0.000000
                                -0.002081 -0.000000  0.020650 -0.000000  0.027594  0.000000 -0.000011  0.000000  0.000008  0.000000
                                -0.000466  0.000000  0.009520  0.000000 -0.000027  0.000000 -0.000000  0.000013  0.000832 -0.001312
                                -0.002779 -0.003304 -0.113777 -0.001140 -0.000069 -0.000015 -0.146566  0.000077 -0.001488  0.003529
                                -0.000035  0.000003  0.061770 -0.000113 -0.000000  0.001240  0.000000  0.000002  0.000000 -0.006006
                                -0.000000  0.000034 -0.000000 -0.000040 -0.000000

   9.2   0     0.0838   -7.3767  0.000000  0.000000  0.000001  0.000003  0.000009  0.000028  0.000077  0.000252  0.000630  0.001768
                                 0.003030  0.005625  0.001117 -0.001451 -0.024341 -0.006685 -0.009051  0.077580 -0.010695  0.078428
                                -0.284609  0.127072 -1.193636  2.560200 -1.522865 -0.000000  0.000001 -0.000002  0.000016 -0.000023
                                 0.000179 -0.000215  0.001091 -0.001607  0.004034 -0.007071  0.010790 -0.020982  0.034150 -0.063350
                                 0.146375 -0.490828  0.652893 -0.986234  0.000630  0.000000  0.001806  0.000000  0.000530  0.000000
                                 0.009253  0.000000 -0.021821  0.000000 -0.031481 -0.000000  0.000182 -0.000000 -0.000545 -0.000000
                                 0.004313 -0.000000 -0.015136 -0.000000 -0.000072 -0.000000  0.000000 -0.000290 -0.033542  0.007996
                                 0.021610  0.018077  0.184707  0.035902  0.000816  0.000135  0.212281  0.000212  0.000888 -0.000709
                                 0.000018  0.000001 -0.067217 -0.000219  0.000000  0.001186 -0.000000  0.000001  0.000000  0.002893
                                 0.000000  0.000306  0.000000 -0.001631 -0.000000

                                   1 2py     1 2py     1 2py     1 2py     1 2py     1 2py     1 2py     1 2py     1 2py     1 2py  
                                   1 2py     1 2py     1 2py     1 2py     1 2py     1 2py     1 2py     1 2py     1 2py     1 2py  
                                   1 2py     1 2py     1 2py     1 2py     1 2py     1 3d1-    1 3d1-    1 3d1-    1 3d1-    1 3d1- 
                                   1 3d1-    1 3d1-    1 3d1-    1 3d1-    1 3d1-    1 3d1-    1 3d1-    1 3d1-    1 3d1-    1 3d1- 
                                   1 3d1-    1 3d1-    1 3d1-    1 3d1-    1 4f1-    1 4f3-    1 4f1-    1 4f3-    1 4f1-    1 4f3- 
                                   1 4f1-    1 4f3-    1 4f1-    1 4f3-    1 4f1-    1 4f3-    1 5g1-    1 5g3-    1 5g1-    1 5g3- 
                                   1 5g1-    1 5g3-    1 5g1-    1 5g3-    1 6h1-    1 6h3-    1 6h5-    2 2py     2 2py     2 2py  
                                   2 2py     2 2py     2 2py     2 2py     2 2py     2 2py     2 2py     2 3d1-    2 3d1-    2 3d1- 
                                   2 3d1-    2 3d1-    2 3d1-    2 4f1-    2 4f3-    2 4f1-    2 4f3-    2 4f1-    2 4f3-    2 4f1- 
                                   2 4f3-    2 5g1-    2 5g3-    2 5g1-    2 5g3- 

   1.3   2  -164.8146 -509.5850  0.000007  0.000025  0.000082  0.000250  0.000751  0.002256  0.006793  0.019897  0.054255  0.128815
                                 0.244435  0.333597  0.273266  0.109676  0.016978  0.000820  0.000058 -0.000141 -0.000002 -0.000020
                                 0.000008 -0.000003  0.000002 -0.000001  0.000000 -0.000000 -0.000000 -0.000000  0.000000  0.000000
                                -0.000002 -0.000007 -0.000006 -0.000003  0.000000  0.000001  0.000000 -0.000000 -0.000000 -0.000001
                                 0.000001 -0.000000  0.000000  0.000000 -0.000002  0.000000  0.000001  0.000000 -0.000001 -0.000000
                                 0.000000  0.000000  0.000000 -0.000000  0.000000  0.000000 -0.000000  0.000000  0.000000 -0.000000
                                 0.000000  0.000000  0.000000 -0.000000  0.000000  0.000000 -0.000000 -0.000000 -0.000001  0.000000
                                 0.000000  0.000000 -0.000000  0.000001  0.000000  0.000000 -0.000000  0.000000 -0.000000 -0.000000
                                -0.000000  0.000000  0.000000 -0.000000  0.000000  0.000000 -0.000000  0.000000 -0.000000  0.000000
                                 0.000000  0.000000 -0.000000 -0.000000  0.000000

   2.3   2   -31.7961 -176.9467 -0.000003 -0.000012 -0.000038 -0.000117 -0.000352 -0.001063 -0.003214 -0.009528 -0.026453 -0.065077
                                -0.129132 -0.186286 -0.121366  0.129674  0.426269  0.427934  0.146503  0.014248  0.000731  0.000183
                                -0.000048  0.000013 -0.000010  0.000006 -0.000002 -0.000000 -0.000000 -0.000000 -0.000001 -0.000005
                                -0.000013 -0.000030 -0.000073 -0.000102 -0.000097 -0.000051  0.000002  0.000010 -0.000004  0.000023
                                 0.000006 -0.000008  0.000004 -0.000001 -0.000063  0.000000  0.000043 -0.000000 -0.000028  0.000000
                                 0.000022 -0.000000 -0.000010  0.000000  0.000002 -0.000000 -0.000007 -0.000000  0.000000 -0.000000
                                 0.000003  0.000000 -0.000003 -0.000000 -0.000001 -0.000000  0.000000 -0.000000 -0.000029 -0.000002
                                -0.000001 -0.000013  0.000000  0.000029  0.000000  0.000000 -0.000001  0.000000  0.000002  0.000016
                                 0.000000 -0.000000  0.000001  0.000000  0.000000 -0.000006 -0.000000 -0.000000 -0.000000 -0.000007
                                 0.000000 -0.000000  0.000000  0.000003 -0.000000

   3.3   2   -22.1999 -162.2245 -0.000000 -0.000000 -0.000000 -0.000000 -0.000000 -0.000000 -0.000001 -0.000002 -0.000007 -0.000017
                                -0.000033 -0.000046 -0.000027  0.000022  0.000113  0.000131  0.000041  0.000051  0.000003  0.000005
                                 0.000015 -0.000001  0.000013  0.000003 -0.000001  0.000020  0.000159  0.000981  0.004658  0.017748
                                 0.053451  0.129581  0.235273  0.313980  0.288600  0.151023  0.037313  0.002326  0.000413 -0.000186
                                 0.000102 -0.000080  0.000046 -0.000008 -0.000115  0.000000  0.000094 -0.000000 -0.000042 -0.000000
                                 0.000026 -0.000000 -0.000012  0.000000  0.000008 -0.000000 -0.000025 -0.000000  0.000004 -0.000000
                                -0.000002  0.000000  0.000002 -0.000000 -0.000002 -0.000000  0.000000 -0.000000 -0.000025 -0.000001
                                 0.000003 -0.000011  0.000001  0.000025  0.000000  0.000000 -0.000016 -0.000000  0.000003  0.000011
                                 0.000000 -0.000000  0.000001 -0.000000 -0.000000 -0.000007  0.000000 -0.000000  0.000000 -0.000002
                                 0.000000  0.000002  0.000000  0.000003 -0.000000

   4.3   2    -5.0809  -72.8619  0.000001  0.000005  0.000017  0.000050  0.000151  0.000458  0.001386  0.004120  0.011473  0.028440
                                 0.056926  0.083336  0.049768 -0.084024 -0.273169 -0.306760  0.117775  0.548779  0.441596  0.096477
                                 0.001490  0.000885 -0.000522  0.000210 -0.000083 -0.000000 -0.000000 -0.000001 -0.000003 -0.000012
                                -0.000037 -0.000096 -0.000155 -0.000215 -0.000108 -0.000033  0.000162  0.001025  0.001488 -0.000624
                                -0.000556 -0.000244 -0.000009 -0.000024 -0.000026 -0.000000 -0.000134 -0.000000 -0.000175 -0.000000
                                -0.000394  0.000000 -0.000315 -0.000000 -0.000034  0.000000 -0.000053 -0.000000 -0.000093 -0.000000
                                -0.000150 -0.000000 -0.000023 -0.000000  0.000080 -0.000000 -0.000000 -0.000008 -0.000942  0.000116
                                 0.000334  0.000834  0.000695  0.000987  0.000020  0.000003  0.000115 -0.000027 -0.000449 -0.000728
                                -0.000011  0.000000 -0.000254  0.000083 -0.000000  0.000402  0.000000  0.000000  0.000000  0.000146
                                 0.000000 -0.000128  0.000000 -0.000107 -0.000000

   5.3   2    -1.9892  -60.6747 -0.000000 -0.000000 -0.000000 -0.000000 -0.000001 -0.000002 -0.000006 -0.000018 -0.000050 -0.000125
                                -0.000246 -0.000373 -0.000200  0.000350  0.001309  0.001313 -0.000595 -0.003635 -0.001266  0.003218
                                -0.005047 -0.005537 -0.000579 -0.000036 -0.000003 -0.000008 -0.000063 -0.000391 -0.001861 -0.007136
                                -0.021667 -0.053387 -0.096627 -0.124273 -0.090565  0.075188  0.293603  0.389313  0.295008  0.109928
                                 0.011614 -0.002538  0.000343 -0.000157  0.000279 -0.000000  0.000165 -0.000000  0.002401 -0.000000
                                -0.000491 -0.000000 -0.002236 -0.000000 -0.000424  0.000000 -0.000165 -0.000000  0.000182 -0.000000
                                -0.000555  0.000000 -0.000471 -0.000000  0.000148 -0.000000  0.000000 -0.000139 -0.014931  0.004840
                                 0.011720  0.014980  0.008671  0.016313  0.000435  0.000077  0.000649 -0.000570 -0.004356 -0.006476
                                -0.000094  0.000000 -0.002426  0.000614  0.000000  0.002882 -0.000000  0.000004 -0.000000  0.001324
                                -0.000000 -0.000622 -0.000000 -0.000852  0.000000

   6.3   2    -0.5659  -25.6734 -0.000000 -0.000001 -0.000002 -0.000007 -0.000021 -0.000065 -0.000197 -0.000585 -0.001630 -0.004045
                                -0.008111 -0.011894 -0.007005  0.012631  0.041322  0.047008 -0.026796 -0.103955 -0.103828  0.041297
                                 0.185242  0.084477 -0.001925 -0.005604  0.001177  0.000001  0.000008  0.000048  0.000233  0.000883
                                 0.002710  0.006607  0.012130  0.015206  0.011462 -0.011743 -0.037581 -0.055725 -0.031857  0.009367
                                 0.018767 -0.031255  0.003103 -0.006831  0.005150  0.000000  0.006430  0.000000  0.017091  0.000000
                                 0.022656  0.000000  0.004291 -0.000000 -0.010534 -0.000000  0.000365  0.000000  0.004756 -0.000000
                                 0.004420  0.000000 -0.001347 -0.000000  0.001617  0.000000 -0.000000 -0.002260 -0.215042  0.123319
                                 0.274541  0.370873  0.281944  0.246610  0.008531  0.001663  0.039892 -0.002423 -0.017837 -0.049466
                                -0.000365  0.000002 -0.038506  0.000976 -0.000000  0.010853 -0.000000  0.000011 -0.000000  0.011215
                                -0.000000 -0.001097  0.000000 -0.003500  0.000000

   7.3   +    -0.3330  -24.5107 -0.000000 -0.000001 -0.000004 -0.000012 -0.000036 -0.000110 -0.000333 -0.000989 -0.002757 -0.006839
                                -0.013722 -0.020106 -0.011866  0.021496  0.070044  0.080028 -0.046610 -0.180031 -0.177336  0.056848
                                 0.416133  0.498010  0.195526  0.008809 -0.000436 -0.000001 -0.000006 -0.000038 -0.000181 -0.000691
                                -0.002104 -0.005173 -0.009402 -0.011982 -0.008653  0.008916  0.030901  0.041865  0.028180 -0.016389
                                -0.065924 -0.049250 -0.028161  0.002686 -0.004241  0.000000 -0.005857  0.000000 -0.012818  0.000000
                                -0.025571  0.000000 -0.034565 -0.000000 -0.011459 -0.000000 -0.000245 -0.000000 -0.002669 -0.000000
                                -0.003391 -0.000000 -0.003141  0.000000 -0.000632 -0.000000 -0.000000  0.001205  0.114372 -0.067245
                                -0.150341 -0.202363 -0.169919 -0.131435 -0.004580 -0.000895 -0.047983  0.000061  0.002284  0.011113
                                 0.000039 -0.000003  0.010872  0.000018  0.000000 -0.002625 -0.000000  0.000002 -0.000000 -0.003509
                                 0.000000  0.000396  0.000000  0.001069 -0.000000

   8.3   0     0.0221   -5.1378 -0.000000 -0.000000 -0.000000 -0.000001 -0.000003 -0.000010 -0.000032 -0.000086 -0.000268 -0.000581
                                -0.001378 -0.001534 -0.001806  0.003517  0.003431  0.012575 -0.012747 -0.002916 -0.039156  0.044463
                                -0.030891  0.293875 -0.224642  1.091907 -1.727468 -0.000000 -0.000000 -0.000001 -0.000004 -0.000015
                                -0.000050 -0.000109 -0.000230 -0.000229 -0.000274  0.000346  0.000503  0.001241  0.000285 -0.000326
                                 0.013520  0.094509 -0.039584  0.114490 -0.000106  0.000000 -0.000299  0.000000 -0.000024  0.000000
                                -0.002081  0.000000  0.020650  0.000000  0.027594 -0.000000 -0.000011 -0.000000  0.000008 -0.000000
                                -0.000466 -0.000000  0.009520 -0.000000 -0.000027 -0.000000 -0.000000  0.000013  0.000832 -0.001312
                                -0.002779 -0.003304 -0.113777 -0.001140 -0.000069 -0.000015 -0.146566  0.000077 -0.001488  0.003529
                                -0.000035  0.000003  0.061770 -0.000113  0.000000  0.001240 -0.000000  0.000002 -0.000000 -0.006006
                                 0.000000  0.000034  0.000000 -0.000040  0.000000

   9.3   0     0.0838   -7.3767  0.000000  0.000000  0.000001  0.000003  0.000009  0.000028  0.000077  0.000252  0.000630  0.001768
                                 0.003030  0.005625  0.001117 -0.001451 -0.024341 -0.006685 -0.009051  0.077580 -0.010695  0.078428
                                -0.284609  0.127072 -1.193636  2.560200 -1.522865 -0.000000  0.000001 -0.000002  0.000016 -0.000023
                                 0.000179 -0.000215  0.001091 -0.001607  0.004034 -0.007071  0.010790 -0.020982  0.034150 -0.063350
                                 0.146375 -0.490828  0.652893 -0.986234  0.000630 -0.000000  0.001806 -0.000000  0.000530 -0.000000
                                 0.009253 -0.000000 -0.021821 -0.000000 -0.031481  0.000000  0.000182  0.000000 -0.000545  0.000000
                                 0.004313  0.000000 -0.015136  0.000000 -0.000072  0.000000  0.000000 -0.000290 -0.033542  0.007996
                                 0.021610  0.018077  0.184707  0.035902  0.000816  0.000135  0.212281  0.000212  0.000888 -0.000709
                                 0.000018  0.000001 -0.067217 -0.000219 -0.000000  0.001186  0.000000  0.000001 -0.000000  0.002893
                                -0.000000  0.000306 -0.000000 -0.001631  0.000000

                                   1 3d2-    1 3d2-    1 3d2-    1 3d2-    1 3d2-    1 3d2-    1 3d2-    1 3d2-    1 3d2-    1 3d2- 
                                   1 3d2-    1 3d2-    1 3d2-    1 3d2-    1 3d2-    1 3d2-    1 3d2-    1 3d2-    1 3d2-    1 4f2- 
                                   1 4f2-    1 4f2-    1 4f2-    1 4f2-    1 4f2-    1 5g2-    1 5g4-    1 5g2-    1 5g4-    1 5g2- 
                                   1 5g4-    1 5g2-    1 5g4-    1 6h4-    1 6h2-    2 3d2-    2 3d2-    2 3d2-    2 3d2-    2 3d2- 
                                   2 3d2-    2 4f2-    2 4f2-    2 4f2-    2 4f2-    2 5g2-    2 5g4-    2 5g2-    2 5g4- 

   1.4   2   -22.2021 -162.2083  0.000020  0.000159  0.000981  0.004658  0.017746  0.053447  0.129567  0.235254  0.313952  0.288634
                                 0.151066  0.037294  0.002330  0.000421 -0.000190  0.000097 -0.000074  0.000037 -0.000010 -0.000050
                                 0.000043 -0.000012  0.000009 -0.000003  0.000002 -0.000018 -0.000000  0.000004  0.000000 -0.000005
                                -0.000000  0.000003  0.000000  0.000000 -0.000003 -0.000000 -0.000002 -0.000003 -0.000000  0.000000
                                -0.000002  0.000000  0.000001  0.000000  0.000001 -0.000001 -0.000000 -0.000001  0.000000

   2.4   2    -1.9848  -60.6380 -0.000008 -0.000063 -0.000392 -0.001865 -0.007149 -0.021715 -0.053475 -0.096856 -0.124422 -0.090934
                                 0.075587  0.293465  0.391201  0.294798  0.113272  0.015257  0.000377  0.000251 -0.000022  0.000259
                                 0.000373  0.001965  0.000567 -0.000575  0.000060 -0.000106 -0.000000 -0.000232  0.000000 -0.000273
                                 0.000000 -0.000043 -0.000000 -0.000000 -0.000079  0.000073  0.000730  0.000823  0.000017 -0.000000
                                -0.000129 -0.000127 -0.000683 -0.000001 -0.000006  0.000204 -0.000000  0.000179  0.000000

   3.4   0     0.0795   -8.0015 -0.000000 -0.000002 -0.000021 -0.000056 -0.000366 -0.000660 -0.002812 -0.002423 -0.008524  0.003280
                                -0.008586  0.034160 -0.018190  0.074134 -0.117121  0.223433 -0.668176  1.006799 -1.503320  0.000011
                                 0.000401 -0.000535  0.003114 -0.003920  0.021762 -0.000011 -0.000000  0.000102 -0.000000  0.000063
                                 0.000000  0.002940 -0.000000  0.000000 -0.000003 -0.000149 -0.001556 -0.002446 -0.000035  0.000001
                                 0.001681 -0.000026  0.000663  0.000001  0.000109  0.000101 -0.000000 -0.000156  0.000000

   4.4   0     0.1944  -12.3416 -0.000001 -0.000010 -0.000041 -0.000273 -0.000768 -0.003162 -0.005622 -0.015084 -0.009369 -0.023789
                                 0.034249  0.002426  0.120685 -0.073730  0.178185 -0.656066  1.083326 -2.536573  1.472719  0.000190
                                 0.000802 -0.000113  0.005074 -0.011258  0.047166 -0.000013 -0.000000  0.000187 -0.000000 -0.000727
                                -0.000000  0.002091 -0.000000  0.000000 -0.000224 -0.000787 -0.003036 -0.008722 -0.000058 -0.000004
                                 0.024132  0.000151  0.001497  0.000002 -0.008050 -0.000558 -0.000000  0.001011  0.000000

 HOMO      7.2    -0.333018 =      -9.0619eV
 LUMO     16.1     0.015437 =       0.4201eV
 LUMO-HOMO         0.348455 =       9.4819eV


 **********************************************************************************************************************************
 DATASETS  * FILE   NREC   LENGTH (MB)   RECORD NAMES
              1      22       23.36       500      610      700      900      950      970     1000      129      960     1700   
                                          VAR    BASINP    GEOM    SYMINP    ZMAT    AOBASIS   BASIS     P2S    ABASIS    OPER   
                                         1101     1401     1411     1412     1650     1100     1400     1410     1200     1210   
                                          SR      EKINR    POTR     PVPR    MOLCAS      S      EKIN      POT      H0       H01  
                                         1080     1600   
                                         AOSYM     SMH  

              2       4        4.26       700     1000      520     2100   
                                         GEOM     BASIS   MCVARS     RHF  

 PROGRAMS   *        TOTAL       RHF       INT
 CPU TIMES  *        92.86     10.49     82.17
 REAL TIME  *       100.98 SEC
 DISK USED  *         6.50 GB      
 SF USED    *         0.20 MB      
 GA USED    *         0.00 MB       (max)       0.00 MB       (current)
 **********************************************************************************************************************************
 SETTING SCF            =     -6865.84063164  AU                              
 SETTING _CC_NORM_MAX   =         2.00000000                                  


 PROGRAM * CCSD (Restricted open-shell coupled cluster)     Authors: C. Hampel, H.-J. Werner, 1991, M. Deegan, P.J. Knowles, 1992


 Convergence thresholds:  THRVAR = 1.00D-08  THRDEN = 1.20D-06

 CCSD(T)     terms to be evaluated (factor= 1.000)


 Number of core orbitals:          24 (  12   5   5   2 )
 Number of closed-shell orbitals:   5 (   3   1   1   0 )
 Number of active  orbitals:        2 (   0   1   1   0 )
 Number of external orbitals:     382 ( 159  88  88  47 )

 Memory could be reduced to 202.40 Mwords without degradation in triples

 Number of N-1 electron functions:              12
 Number of N-2 electron functions:              66
 Number of singly external CSFs:              1488
 Number of doubly external CSFs:           1925266
 Total number of CSFs:                     1926754

 Molecular orbitals read from record     2100.2  Type=RHF/CANONICAL (state 1.4)

 Integral transformation finished. Total CPU:   6.08 sec, npass=  1  Memory used:  19.56 MW

 Starting RMP2 calculation

 Wavefunction is spin-projected

 ITER.      SQ.NORM     CORR.ENERGY   TOTAL ENERGY   ENERGY CHANGE        DEN1      VAR(S)    VAR(P)  DIIS     TIME
   1      1.11436926    -0.37754075 -6866.21817239    -0.37754075    -0.00127363  0.32D-04  0.59D-03  1  1     6.69
   2      1.11588124    -0.37891564 -6866.21954728    -0.00137489    -0.00000362  0.11D-06  0.22D-05  2  2     6.87
   3      1.11595211    -0.37895125 -6866.21958289    -0.00003561    -0.00000001  0.35D-09  0.76D-08  3  3     7.04
   4      1.11595289    -0.37895116 -6866.21958280     0.00000009    -0.00000000  0.32D-11  0.27D-10  4  4     7.26

 Norm of t1 vector:      0.05425361      S-energy:    -0.00416015      T1 diagnostic:  0.00037365
 Norm of t2 vector:      0.33616877      P-energy:    -0.37479101
                                         Alpha-Beta:  -0.27740385
                                         Alpha-Alpha: -0.05214148
                                         Beta-Beta:   -0.04524569

 Spin contamination <S**2-Sz**2-Sz>     0.00000000
  Reference energy                  -6865.840631640165
  RHF-RMP2 correlation energy          -0.378951160430
 !RHF-RMP2 energy                   -6866.219582800595
 (NB above energy spin projected)

 Starting RCCSD calculation

 ITER.      SQ.NORM     CORR.ENERGY   TOTAL ENERGY   ENERGY CHANGE        DEN1      VAR(S)    VAR(P)  DIIS     TIME
   1      1.11027441    -0.36601730 -6866.20664894    -0.36601730    -0.01036652  0.28D-02  0.23D-02  1  1     9.89
   2      1.12048172    -0.37481453 -6866.21544617    -0.00879724    -0.00101384  0.23D-03  0.35D-03  2  2    12.30
   3      1.12582817    -0.37659406 -6866.21722570    -0.00177953    -0.00014737  0.13D-03  0.19D-04  3  3    14.73
   4      1.12863734    -0.37726770 -6866.21789934    -0.00067364    -0.00003327  0.24D-04  0.57D-05  4  4    17.22
   5      1.13000037    -0.37738640 -6866.21801804    -0.00011870    -0.00000724  0.61D-05  0.12D-05  5  5    19.67
   6      1.13087968    -0.37747397 -6866.21810561    -0.00008757    -0.00000061  0.36D-06  0.14D-06  6  6    22.19
   7      1.13104082    -0.37748503 -6866.21811667    -0.00001106    -0.00000007  0.25D-07  0.20D-07  6  2    24.71
   8      1.13104258    -0.37748373 -6866.21811537     0.00000130    -0.00000001  0.53D-08  0.27D-08  6  1    27.22
   9      1.13104908    -0.37748450 -6866.21811614    -0.00000077    -0.00000000  0.77D-09  0.25D-09  6  3    29.77

 Norm of t1 vector:      0.11445477      S-energy:    -0.00476631      T1 diagnostic:  0.01961370
                                                                       D1 diagnostic:  0.04201385
 Norm of t2 vector:      0.34343732      P-energy:    -0.37271819
                                         Alpha-Beta:  -0.28652433
                                         Alpha-Alpha: -0.04699892
                                         Beta-Beta:   -0.03919494

 Singles amplitudes (print threshold =  0.500E-01):

         I         SYM. A    A   T(IA) [Beta-Beta]

         4         2         1      0.05941656
         6         3         1      0.05941656

 Spin contamination <S**2-Sz**2-Sz>     0.00000000

 Memory could be reduced to 206.67 Mwords without degradation in triples
 

 RESULTS
 =======

  Reference energy                  -6865.840631640165
  RCCSD singles energy                 -0.004766311626
  RCCSD pair energy                    -0.372718191445
  RCCSD correlation energy             -0.377484503071
  Triples (T) contribution             -0.017434027594
  Total correlation energy             -0.394918530665
 
  RHF-RCCSD energy                  -6866.218116143236
  RHF-RCCSD[T] energy               -6866.236327936014
  RHF-RCCSD-T energy                -6866.235217364931
 !RHF-RCCSD(T) energy               -6866.235550170831

 Program statistics:

 Available memory in ccsd:               999999438
 Min. memory needed in ccsd:               6535638
 Max. memory used in ccsd:                 8721853
 Max. memory used in cckext:               9781533 ( 9 integral passes)
 Max. memory used in cckint:              19560306 ( 1 integral passes)



 **********************************************************************************************************************************
 DATASETS  * FILE   NREC   LENGTH (MB)   RECORD NAMES
              1      22       23.36       500      610      700      900      950      970     1000      129      960     1700   
                                          VAR    BASINP    GEOM    SYMINP    ZMAT    AOBASIS   BASIS     P2S    ABASIS    OPER   
                                         1101     1401     1411     1412     1650     1100     1400     1410     1200     1210   
                                          SR      EKINR    POTR     PVPR    MOLCAS      S      EKIN      POT      H0       H01  
                                         1080     1600   
                                         AOSYM     SMH  

              2       4        4.26       700     1000      520     2100   
                                         GEOM     BASIS   MCVARS     RHF  

 PROGRAMS   *        TOTAL  RCCSD(T)       RHF       INT
 CPU TIMES  *       154.09     61.23     10.49     82.17
 REAL TIME  *       173.36 SEC
 DISK USED  *         8.60 GB      
 SF USED    *         2.72 GB      
 GA USED    *         0.00 MB       (max)       0.00 MB       (current)
 **********************************************************************************************************************************
 SETTING CCSD           =     -6866.23555017  AU                              
 VARIABLE I_CCSD UNDEFINED, ASSUMING 0
 VARIABLE O_CCSD UNDEFINED, ASSUMING 0
 SETTING BIND           =     -6866.23555017  AU                              
 Output type csv         
                                                                                                                                                                                                                                                                

  1.50,SCF,CCSD
   1.5,   -6865.840632,   -6866.235550
                                                  

 RCCSD(T)/USERDEF energy=  -6866.235550170831

        RCCSD(T)        RHF-SCF 
  -6866.23555017  -6865.84063164
 **********************************************************************************************************************************
 Molpro calculation terminated
 Variable memory released
