
 Primary working directories    : /global/cscratch1/sd/aannabe
 Secondary working directories  : /global/cscratch1/sd/aannabe
 Wavefunction directory         : /global/homes/a/aannabe/wfu/
 Main file repository           : /global/cscratch1/sd/aannabe/

 SHA1      : 19cd028119e0e09f93f0674bd8af7968d9b3eff6
 NAME      : 2015.1.36
 ARCHNAME  : linux/x86_64
 FC        : /opt/cray/pe/craype/2.5.14/bin/ftn
 BLASLIB   : -L/opt/intel/compilers_and_libraries_2018.1.163/linux/mkl/lib/intel64 -Wl,-_start-group -lmkl_intel_ilp64 -lmkl_intel_thread -lmkl_core -Wl,-_end-group -liomp5
 id        : lbl

 Nodes     nprocs
 nid00077     3
 Number of processes for MPI-2 version of Molpro:   nprocs(total)=    4   nprocs(compute)=    3   nprocs(helper)=    1

 Using customized tuning parameters: mindgm=7; mindgv=16; mindgc=1; mindgr=1; noblas=0; minvec=7
 default implementation of scratch files=sf  

 ***,Calculation of binding energy
 memory,512,m
 gthresh,twoint=1.0E-12
 
 basis={
 Including file /global/u1/a/aannabe/docs/aps_2020_so/I/ccsd-t_arep/I2/ecp.pp
 Including file /global/u1/a/aannabe/docs/aps_2020_so/I/ccsd-t_arep/I2/aug-cc-pV5Z.basis
 }
 
 ne    =14
 symm  =1
 ss    =0
 
 do i=1,2
     z(i) = 2.35 + 0.60*(i-1)
     geometry={
         2
         I2
         I  0.0 0.0 0.0
         I  0.0 0.0 z(i)
     }
     {rhf
      wf,nelec=ne,spin=ss ,sym=symm
                                                                                 !print,orbitals=3
     }
     scf(i)=energy
     _CC_NORM_MAX=2.0
     {uccsd(t),shifts=0.4,shiftp=0.4;maxit,100;core}
     ccsd(i)=energy
 enddo
 
 basis={
 Including file /global/u1/a/aannabe/docs/aps_2020_so/I/ccsd-t_arep/I2/ecp.pp
 Including file /global/u1/a/aannabe/docs/aps_2020_so/I/ccsd-t_arep/I2/aug-cc-pV5Z.basis
 }
 
 geometry={
    1
    I
    I 0.0 0.0 0.0
 }
 {rhf;
  start,atden
  wf,7,3,1
  occ,1,1,1,0,1,0,0,0
  closed,1,1,0,0,1,0,00
 }
 A_scf=energy
 B_scf=energy
 _CC_NORM_MAX=2.0
 {uccsd(t);maxit,100;core}
 A_ccsd=energy
 B_ccsd=energy
 
 table,z,scf,ccsd, A_scf,A_ccsd,B_scf,B_ccsd
 save, 5z_1.csv, new
 

 Variables initialized (889), CPU time= 0.01 sec
 Commands  initialized (702), CPU time= 0.00 sec, 572 directives.
 Default parameters read. Elapsed time= 0.15 sec

 Checking input...
 Passed
1


                                         ***  PROGRAM SYSTEM MOLPRO  ***
                                       Copyright, TTI GmbH Stuttgart, 2015
                                    Version 2015.1 linked Dec 29 2018 15:55:43


 **********************************************************************************************************************************
 LABEL *   Calculation of binding energy                                                 
  64 bit mpp version                                                                     DATE: 18-Feb-20          TIME: 08:57:41  
 **********************************************************************************************************************************

 SHA1:             19cd028119e0e09f93f0674bd8af7968d9b3eff6
 **********************************************************************************************************************************

 THRESHOLDS:

 ZERO    =  1.00D-12  ONEINT  =  1.00D-12  TWOINT  =  1.00D-12  PREFAC  =  1.00D-14  LOCALI  =  1.00D-09  EORDER  =  1.00D-04
 ENERGY  =  0.00D+00  ETEST   =  0.00D+00  EDENS   =  0.00D+00  THRDEDEF=  1.00D-06  GRADIENT=  1.00D-02  STEP    =  1.00D-03
 ORBITAL =  1.00D-05  CIVEC   =  1.00D-05  COEFF   =  1.00D-04  PRINTCI =  5.00D-02  PUNCHCI =  9.90D+01  OPTGRAD =  3.00D-04
 OPTENERG=  1.00D-06  OPTSTEP =  3.00D-04  THRGRAD =  1.00D-10  COMPRESS=  1.00D-11  VARMIN  =  1.00D-07  VARMAX  =  1.00D-03
 THRDOUB =  0.00D+00  THRDIV  =  1.00D-05  THRRED  =  1.00D-07  THRPSP  =  1.00D+00  THRDC   =  1.00D-10  THRCS   =  1.00D-10
 THRNRM  =  1.00D-08  THREQ   =  0.00D+00  THRDE   =  1.00D+00  THRREF  =  1.00D-05  SPARFAC =  1.00D+00  THRDLP  =  1.00D-07
 THRDIA  =  1.00D-10  THRDLS  =  1.00D-07  THRGPS  =  0.00D+00  THRKEX  =  0.00D+00  THRDIS  =  2.00D-01  THRVAR  =  1.00D-10
 THRLOC  =  1.00D-06  THRGAP  =  1.00D-06  THRLOCT = -1.00D+00  THRGAPT = -1.00D+00  THRORB  =  1.00D-06  THRMLTP =  0.00D+00
 THRCPQCI=  1.00D-10  KEXTA   =  0.00D+00  THRCOARS=  0.00D+00  SYMTOL  =  1.00D-06  GRADTOL =  1.00D-06  THROVL  =  1.00D-08
 THRORTH =  1.00D-08  GRID    =  1.00D-06  GRIDMAX =  1.00D-03  DTMAX   =  0.00D+00  THROCCDE=  1.00D-01  THROCCDE=  1.00D-01



 Variable memory set to  512000000 words,  buffer space   230000 words

 SETTING BASIS          =    USERDEF
 SETTING NE             =        14.00000000                                  
 SETTING SYMM           =         1.00000000                                  
 SETTING SS             =     0.00000000D+00                                  

 DO I                   =         1.00000000   
 SETTING Z(1)           =         2.35000000                                  

Geometry recognized as XYZ



 Recomputing integrals since basis changed


 Using spherical harmonics



 PROGRAM * SEWARD (Integral evaluation for generally contracted gaussian basis sets)     Author: Roland Lindh, 1990

 Geometry written to block  1 of record 700


 Point group  C2v 



 ATOMIC COORDINATES

 NR  ATOM    CHARGE       X              Y              Z

   1  I       7.00    0.000000000    0.000000000    0.000000000
   2  I       7.00    0.000000000    0.000000000    4.440856393

 Bond lengths in Bohr (Angstrom)

 1-2  4.440856393
     ( 2.350000000)

 NUCLEAR CHARGE:                   14
 NUMBER OF PRIMITIVE AOS:         540
 NUMBER OF SYMMETRY AOS:          412
 NUMBER OF CONTRACTIONS:          412   ( 164A1  +  96B1  +  96B2  +  56A2  )
 NUMBER OF CORE ORBITALS:           0   (   0A1  +   0B1  +   0B2  +   0A2  )
 NUMBER OF VALENCE ORBITALS:        8   (   4A1  +   2B1  +   2B2  +   0A2  )


 NUCLEAR REPULSION ENERGY   11.03390780

 EXTRA SYMMETRY OF AOS IN SYMMETRY 1:   1 1 1 1 1 1 1 1 1 1   1 1 1 1 1 1 1 1 1 1   1 1 1 1 1 1 1 1 1 1   1 1 2 1 2 1 2 1 2 1
                                        2 1 2 1 2 1 2 1 2 1   2 1 2 1 2 1 2 1 2 1   2 1 2 1 2 1 2 1 3 2   1 3 2 1 3 2 2 3 1 2
                                        3 1 1 1 1 1 1 1 1 1   1 1 1 1 1 1 1 1 1 1   1 1 1 1 1 1 1 1 1 1   1 1 1 1 2 1 2 1 2 1
                                        2 1 2 1 2 1 2 1 2 1   2 1 2 1 2 1 2 1 2 1   2 1 2 1 2 1 2 1 2 1   3 2 1 3 2 1 3 2 2 3
                                        1 2 3 1
 EXTRA SYMMETRY OF AOS IN SYMMETRY 2:   1 1 1 1 1 1 1 1 1 1   1 1 1 1 1 1 1 1 1 1   1 1 1 1 1 1 1 1 1 2   1 2 1 2 1 2 1 2 1 2
                                        1 2 1 2 3 1 2 3 1 1   1 1 1 1 1 1 1 1 1 1   1 1 1 1 1 1 1 1 1 1   1 1 1 1 1 1 1 2 1 2
                                        1 2 1 2 1 2 1 2 1 2   1 2 3 1 2 3
 EXTRA SYMMETRY OF AOS IN SYMMETRY 3:   1 1 1 1 1 1 1 1 1 1   1 1 1 1 1 1 1 1 1 1   1 1 1 1 1 1 1 1 1 2   1 2 1 2 1 2 1 2 1 2
                                        1 2 1 2 3 1 2 3 1 1   1 1 1 1 1 1 1 1 1 1   1 1 1 1 1 1 1 1 1 1   1 1 1 1 1 1 1 2 1 2
                                        1 2 1 2 1 2 1 2 1 2   1 2 3 1 2 3
 EXTRA SYMMETRY OF AOS IN SYMMETRY 4:   1 1 1 1 1 1 1 1 1 1   1 1 1 1 1 1 1 1 1 2   1 2 1 2 2 1 2 1 1 1   1 1 1 1 1 1 1 1 1 1
                                        1 1 1 1 1 1 1 2 1 2   1 2 2 1 2 1

 Eigenvalues of metric

         1 0.265E-05 0.144E-04 0.150E-04 0.281E-04 0.463E-04 0.716E-04 0.901E-04 0.188E-03
         2 0.485E-04 0.190E-03 0.218E-03 0.247E-03 0.265E-03 0.540E-03 0.108E-02 0.116E-02
         3 0.485E-04 0.190E-03 0.218E-03 0.247E-03 0.265E-03 0.540E-03 0.108E-02 0.116E-02
         4 0.266E-03 0.273E-03 0.149E-02 0.166E-02 0.391E-02 0.691E-02 0.696E-02 0.987E-02


 Contracted 2-electron integrals neglected if value below      1.0D-12
 AO integral compression algorithm  1   Integral accuracy      1.0D-12

     2475.164 MB (compressed) written to integral file ( 26.9%)

     Node minimum: 735.838 MB, node maximum: 939.000 MB


 NUMBER OF SORTED TWO-ELECTRON INTEGRALS:  306938289.     BUFFER LENGTH:  32768
 NUMBER OF SEGMENTS:  10  SEGMENT LENGTH:   31997478      RECORD LENGTH: 524288

 Memory used in sort:      32.55 MW

 SORT1 READ  1152059255. AND WROTE   145042319. INTEGRALS IN    419 RECORDS. CPU TIME:    42.89 SEC, REAL TIME:    90.48 SEC
 SORT2 READ   437529474. AND WROTE   920790429. INTEGRALS IN  10746 RECORDS. CPU TIME:    11.47 SEC, REAL TIME:    16.03 SEC

 Node minimum:   306921997.  Node maximum:   306938289. integrals

 OPERATOR DM      FOR CENTER  0  COORDINATES:    0.000000    0.000000    0.000000


 **********************************************************************************************************************************
 DATASETS  * FILE   NREC   LENGTH (MB)   RECORD NAMES
              1      19       21.94       500      610      700      900      950      970     1000      129      960     1100   
                                          VAR    BASINP    GEOM    SYMINP    ZMAT    AOBASIS   BASIS     P2S    ABASIS      S 
                                         1400     1410     1420     1200     1210     1080     1600     1650     1700   
                                           T        V       ECP      H0       H01     AOSYM     SMH    MOLCAS    OPER   

 PROGRAMS   *        TOTAL       INT
 CPU TIMES  *       137.01    136.91
 REAL TIME  *       190.69 SEC
 DISK USED  *         7.66 GB      
 GA USED    *         0.00 MB       (max)       0.00 MB       (current)
 **********************************************************************************************************************************


 PROGRAM * RHF-SCF (CLOSED SHELL)       Authors: W. Meyer, H.-J. Werner


 NUMBER OF ELECTRONS:       7+    7-    SPACE SYMMETRY=1    SPIN SYMMETRY: Singlet 
 CONVERGENCE THRESHOLDS:    1.00E-05 (Density)    1.00E-07 (Energy)
 MAX. NUMBER OF ITERATIONS:       60
 INTERPOLATION TYPE:            DIIS
 INTERPOLATION STEPS:              2 (START)      1 (STEP)
 LEVEL SHIFTS:                  0.00 (CLOSED)  0.00 (OPEN) 



 Orbital guess generated from atomic densities. Full valence occupancy:    4   2   2   0

 Molecular orbital dump at record        2100.2

 Initial occupancy:   3   2   2   0

 ITERATION    DDIFF          GRAD             ENERGY        2-EL.EN.            DIPOLE MOMENTS         DIIS   ORB.
    1      0.000D+00      0.000D+00       -22.35747894     50.410256    0.00000    0.00000   -0.00000    0    start
    2      0.000D+00      0.334D-02       -22.37011277     51.267531    0.00000    0.00000   -0.00000    1    diag
    3      0.124D-02      0.148D-02       -22.37269771     50.983893    0.00000    0.00000   -0.00000    2    diag
    4      0.375D-03      0.265D-03       -22.37288277     50.998579    0.00000    0.00000   -0.00000    3    diag
    5      0.109D-03      0.484D-04       -22.37289051     50.996361    0.00000    0.00000    0.00000    4    diag
    6      0.209D-04      0.619D-05       -22.37289062     50.996075    0.00000    0.00000   -0.00000    5    diag
    7      0.368D-05      0.849D-06       -22.37289062     50.996089    0.00000    0.00000    0.00000    6    diag
    8      0.845D-06      0.928D-07       -22.37289062     50.996089    0.00000    0.00000    0.00000    0    orth

 Final occupancy:   3   2   2   0

 !RHF STATE 1.1 Energy                -22.372890622740
 Nuclear energy                        11.03390780
 One-electron energy                  -58.90484276
 Two-electron energy                   25.49804433
 Virial quotient                       -3.15537333
 !RHF STATE 1.1 Dipole moment           0.00000000     0.00000000     0.00000000
 Dipole moment /Debye                   0.00000000     0.00000000     0.00000000

 Orbital energies:

         1.1          2.1          3.1          4.1          5.1
     -1.023926    -0.816258    -0.498568     0.020246     0.043392

         1.2          2.2          3.2          4.2
     -0.469100    -0.338712     0.052238     0.069338

         1.3          2.3          3.3          4.3
     -0.469100    -0.338712     0.052238     0.069338

         1.4          2.4
      0.136234     0.200968

 HOMO      2.2    -0.338712 =      -9.2168eV
 LUMO      4.1     0.020246 =       0.5509eV
 LUMO-HOMO         0.358958 =       9.7677eV


 **********************************************************************************************************************************
 DATASETS  * FILE   NREC   LENGTH (MB)   RECORD NAMES
              1      19       22.00       500      610      700      900      950      970     1000      129      960     1100   
                                          VAR    BASINP    GEOM    SYMINP    ZMAT    AOBASIS   BASIS     P2S    ABASIS      S 
                                         1400     1410     1420     1200     1210     1080     1600     1650     1700   
                                           T        V       ECP      H0       H01     AOSYM     SMH    MOLCAS    OPER   

              2       4        3.81       700     1000      520     2100   
                                         GEOM     BASIS   MCVARS     RHF  

 PROGRAMS   *        TOTAL       RHF       INT
 CPU TIMES  *       147.82     10.81    136.91
 REAL TIME  *       202.36 SEC
 DISK USED  *         7.75 GB      
 SF USED    *         0.20 MB      
 GA USED    *         0.00 MB       (max)       0.00 MB       (current)
 **********************************************************************************************************************************
 SETTING SCF(1)         =       -22.37289062  AU                              
 SETTING _CC_NORM_MAX   =         2.00000000                                  


 PROGRAM * CCSD (Unrestricted open-shell coupled cluster)     Authors: C. Hampel, H.-J. Werner, 1991, M. Deegan, P.J. Knowles, 1992


 Convergence thresholds:  THRVAR = 1.00D-08  THRDEN = 1.00D-06

 CCSD(T)     terms to be evaluated (factor= 1.000)


 Number of closed-shell orbitals:   7 (   3   2   2   0 )
 Number of external orbitals:     405 ( 161  94  94  56 )

 Memory could be reduced to 235.18 Mwords without degradation in triples

 Number of N-1 electron functions:              14
 Number of N-2 electron functions:              91
 Number of singly external CSFs:              1718
 Number of doubly external CSFs:           2923117
 Total number of CSFs:                     2924835

 Molecular orbitals read from record     2100.2  Type=RHF/CANONICAL (state 1.1)

 Integral transformation finished. Total CPU:   6.56 sec, npass=  1  Memory used:  18.37 MW

 Starting RMP2 calculation

 ITER.      SQ.NORM     CORR.ENERGY   TOTAL ENERGY   ENERGY CHANGE        DEN1      VAR(S)    VAR(P)  DIIS     TIME
   1      1.15279521    -0.35966306   -22.73255369    -0.35966306    -0.00745715  0.91D-13  0.35D-02  1  1     6.76
   2      1.16300209    -0.36859438   -22.74148501    -0.00893132    -0.00003646  0.64D-14  0.20D-04  2  2     6.97
   3      1.16355626    -0.36886244   -22.74175306    -0.00026806    -0.00000027  0.55D-15  0.17D-06  3  3     7.30
   4      1.16357439    -0.36886651   -22.74175713    -0.00000406    -0.00000000  0.54D-16  0.23D-08  4  4     7.49
   5      1.16357509    -0.36886671   -22.74175733    -0.00000020    -0.00000000  0.52D-17  0.35D-10  5  5     7.72

 Norm of t1 vector:      0.00000134      S-energy:    -0.00000000      T1 diagnostic:  0.00000025
 Norm of t2 vector:      0.40444417      P-energy:    -0.36886671
                                         Alpha-Beta:  -0.28746206
                                         Alpha-Alpha: -0.04070232
                                         Beta-Beta:   -0.04070232

 Spin contamination <S**2-Sz**2-Sz>     0.00000000
  Reference energy                    -22.372890622740
  RHF-RMP2 correlation energy          -0.368866707865
 !RHF-RMP2 energy                     -22.741757330605

 Starting UCCSD calculation

 ITER.      SQ.NORM     CORR.ENERGY   TOTAL ENERGY   ENERGY CHANGE        DEN1      VAR(S)    VAR(P)  DIIS     TIME
   1      1.15927281    -0.36648387   -22.73937449    -0.36648387    -0.01423894  0.53D-03  0.53D-02  1  1    13.29
   2      1.18019518    -0.38308448   -22.75597511    -0.01660061    -0.00057636  0.61D-04  0.21D-03  2  2    18.81
   3      1.18435035    -0.38490123   -22.75779186    -0.00181675    -0.00004713  0.99D-05  0.18D-04  3  3    24.23
   4      1.18561266    -0.38528728   -22.75817790    -0.00038605    -0.00000606  0.17D-05  0.23D-05  4  4    29.77
   5      1.18600617    -0.38536578   -22.75825641    -0.00007850    -0.00000077  0.24D-06  0.28D-06  5  5    35.40
   6      1.18609196    -0.38536867   -22.75825930    -0.00000289    -0.00000008  0.18D-07  0.37D-07  6  6    40.93
   7      1.18610720    -0.38536957   -22.75826019    -0.00000089    -0.00000001  0.15D-08  0.47D-08  6  1    46.60

 Norm of t1 vector:      0.04805180      S-energy:    -0.00000001      T1 diagnostic:  0.00908094
                                                                       D1 diagnostic:  0.01693722
 Norm of t2 vector:      0.42871695      P-energy:    -0.38536955
                                         Alpha-Beta:  -0.30979443
                                         Alpha-Alpha: -0.03778756
                                         Beta-Beta:   -0.03778756

 Spin contamination <S**2-Sz**2-Sz>     0.00000000

 Memory could be reduced to 237.31 Mwords without degradation in triples
 

 RESULTS
 =======

  Reference energy                    -22.372890622740
  UCCSD singles energy                 -0.000000012021
  UCCSD pair energy                    -0.385369553433
  UCCSD correlation energy             -0.385369565454
  Triples (T) contribution             -0.020561994178
  Total correlation energy             -0.405931559631
 
  RHF-UCCSD energy                    -22.758260188194
  RHF-UCCSD[T] energy                 -22.779020027346
  RHF-UCCSD-T energy                  -22.778772248014
 !RHF-UCCSD(T) energy                 -22.778822182371

 Program statistics:

 Available memory in ccsd:               511999438
 Min. memory needed in ccsd:               9124914
 Max. memory used in ccsd:                12600551
 Max. memory used in cckext:              11740758 ( 7 integral passes)
 Max. memory used in cckint:              18374905 ( 1 integral passes)



 **********************************************************************************************************************************
 DATASETS  * FILE   NREC   LENGTH (MB)   RECORD NAMES
              1      19       22.00       500      610      700      900      950      970     1000      129      960     1100   
                                          VAR    BASINP    GEOM    SYMINP    ZMAT    AOBASIS   BASIS     P2S    ABASIS      S 
                                         1400     1410     1420     1200     1210     1080     1600     1650     1700   
                                           T        V       ECP      H0       H01     AOSYM     SMH    MOLCAS    OPER   

              2       4        3.81       700     1000      520     2100   
                                         GEOM     BASIS   MCVARS     RHF  

 PROGRAMS   *        TOTAL  UCCSD(T)       RHF       INT
 CPU TIMES  *       310.15    162.33     10.81    136.91
 REAL TIME  *       448.41 SEC
 DISK USED  *         8.83 GB      
 SF USED    *         3.14 GB      
 GA USED    *         0.00 MB       (max)       0.00 MB       (current)
 **********************************************************************************************************************************
 SETTING CCSD(1)        =       -22.77882218  AU                              

 DO I                   =         2.00000000   
 SETTING Z(2)           =         2.95000000                                  

Geometry recognized as XYZ



 Recomputing integrals since geometry changed


 PROGRAM * SEWARD (Integral evaluation for generally contracted gaussian basis sets)     Author: Roland Lindh, 1990

 Geometry written to block  1 of record 700


 Point group  C2v 



 ATOMIC COORDINATES

 NR  ATOM    CHARGE       X              Y              Z

   1  I       7.00    0.000000000    0.000000000    0.000000000
   2  I       7.00    0.000000000    0.000000000    5.574692067

 Bond lengths in Bohr (Angstrom)

 1-2  5.574692067
     ( 2.950000000)

 NUCLEAR CHARGE:                   14
 NUMBER OF PRIMITIVE AOS:         540
 NUMBER OF SYMMETRY AOS:          412
 NUMBER OF CONTRACTIONS:          412   ( 164A1  +  96B1  +  96B2  +  56A2  )
 NUMBER OF CORE ORBITALS:           0   (   0A1  +   0B1  +   0B2  +   0A2  )
 NUMBER OF VALENCE ORBITALS:        8   (   4A1  +   2B1  +   2B2  +   0A2  )


 NUCLEAR REPULSION ENERGY    8.78972316

 EXTRA SYMMETRY OF AOS IN SYMMETRY 1:   1 1 1 1 1 1 1 1 1 1   1 1 1 1 1 1 1 1 1 1   1 1 1 1 1 1 1 1 1 1   1 1 2 1 2 1 2 1 2 1
                                        2 1 2 1 2 1 2 1 2 1   2 1 2 1 2 1 2 1 2 1   2 1 2 1 2 1 2 1 3 2   1 3 2 1 3 2 2 3 1 2
                                        3 1 1 1 1 1 1 1 1 1   1 1 1 1 1 1 1 1 1 1   1 1 1 1 1 1 1 1 1 1   1 1 1 1 2 1 2 1 2 1
                                        2 1 2 1 2 1 2 1 2 1   2 1 2 1 2 1 2 1 2 1   2 1 2 1 2 1 2 1 2 1   3 2 1 3 2 1 3 2 2 3
                                        1 2 3 1
 EXTRA SYMMETRY OF AOS IN SYMMETRY 2:   1 1 1 1 1 1 1 1 1 1   1 1 1 1 1 1 1 1 1 1   1 1 1 1 1 1 1 1 1 2   1 2 1 2 1 2 1 2 1 2
                                        1 2 1 2 3 1 2 3 1 1   1 1 1 1 1 1 1 1 1 1   1 1 1 1 1 1 1 1 1 1   1 1 1 1 1 1 1 2 1 2
                                        1 2 1 2 1 2 1 2 1 2   1 2 3 1 2 3
 EXTRA SYMMETRY OF AOS IN SYMMETRY 3:   1 1 1 1 1 1 1 1 1 1   1 1 1 1 1 1 1 1 1 1   1 1 1 1 1 1 1 1 1 2   1 2 1 2 1 2 1 2 1 2
                                        1 2 1 2 3 1 2 3 1 1   1 1 1 1 1 1 1 1 1 1   1 1 1 1 1 1 1 1 1 1   1 1 1 1 1 1 1 2 1 2
                                        1 2 1 2 1 2 1 2 1 2   1 2 3 1 2 3
 EXTRA SYMMETRY OF AOS IN SYMMETRY 4:   1 1 1 1 1 1 1 1 1 1   1 1 1 1 1 1 1 1 1 2   1 2 1 2 2 1 2 1 1 1   1 1 1 1 1 1 1 1 1 1
                                        1 1 1 1 1 1 1 2 1 2   1 2 2 1 2 1

 Eigenvalues of metric

         1 0.837E-05 0.167E-04 0.173E-04 0.639E-04 0.104E-03 0.164E-03 0.174E-03 0.220E-03
         2 0.209E-03 0.220E-03 0.252E-03 0.269E-03 0.516E-03 0.122E-02 0.128E-02 0.158E-02
         3 0.209E-03 0.220E-03 0.252E-03 0.269E-03 0.516E-03 0.122E-02 0.128E-02 0.158E-02
         4 0.269E-03 0.272E-03 0.159E-02 0.166E-02 0.641E-02 0.695E-02 0.146E-01 0.193E-01


 Contracted 2-electron integrals neglected if value below      1.0D-12
 AO integral compression algorithm  1   Integral accuracy      1.0D-12

     2181.562 MB (compressed) written to integral file ( 23.7%)

     Node minimum: 658.506 MB, node maximum: 857.735 MB


 NUMBER OF SORTED TWO-ELECTRON INTEGRALS:  306938289.     BUFFER LENGTH:  32768
 NUMBER OF SEGMENTS:  10  SEGMENT LENGTH:   31997478      RECORD LENGTH: 524288

 Memory used in sort:      32.55 MW

 SORT1 READ  1152059255. AND WROTE   129131136. INTEGRALS IN    374 RECORDS. CPU TIME:    21.71 SEC, REAL TIME:    40.01 SEC
 SORT2 READ   389552680. AND WROTE   920790429. INTEGRALS IN   7536 RECORDS. CPU TIME:     6.50 SEC, REAL TIME:    14.15 SEC

 Node minimum:   306921997.  Node maximum:   306938289. integrals

 OPERATOR DM      FOR CENTER  0  COORDINATES:    0.000000    0.000000    0.000000


 **********************************************************************************************************************************
 DATASETS  * FILE   NREC   LENGTH (MB)   RECORD NAMES
              1      19       21.94       500      610      700      900      950      970     1000      129      960     1100   
                                          VAR    BASINP    GEOM    SYMINP    ZMAT    AOBASIS   BASIS     P2S    ABASIS      S 
                                         1400     1410     1420     1200     1210     1080     1600     1650     1700   
                                           T        V       ECP      H0       H01     AOSYM     SMH    MOLCAS    OPER   

              2       4        3.81       700     1000      520     2100   
                                         GEOM     BASIS   MCVARS     RHF  

 PROGRAMS   *        TOTAL       INT  UCCSD(T)       RHF       INT
 CPU TIMES  *       409.64     99.49    162.33     10.81    136.91
 REAL TIME  *       587.16 SEC
 DISK USED  *         8.83 GB      
 SF USED    *         3.14 GB      
 GA USED    *         0.00 MB       (max)       0.00 MB       (current)
 **********************************************************************************************************************************


 PROGRAM * RHF-SCF (CLOSED SHELL)       Authors: W. Meyer, H.-J. Werner


 NUMBER OF ELECTRONS:       7+    7-    SPACE SYMMETRY=1    SPIN SYMMETRY: Singlet 
 CONVERGENCE THRESHOLDS:    1.00E-05 (Density)    1.00E-07 (Energy)
 MAX. NUMBER OF ITERATIONS:       60
 INTERPOLATION TYPE:            DIIS
 INTERPOLATION STEPS:              2 (START)      1 (STEP)
 LEVEL SHIFTS:                  0.00 (CLOSED)  0.00 (OPEN) 



 Molecular orbitals read from record     2100.2  Type=RHF/CANONICAL (state 1.1)

 Molecular orbital dump at record        2100.2

 ITERATION    DDIFF          GRAD             ENERGY        2-EL.EN.            DIPOLE MOMENTS         DIIS   ORB.
    1      0.000D+00      0.000D+00       -22.32723047     47.357935    0.00000    0.00000   -0.00000    0    start
    2      0.000D+00      0.203D-01       -22.37968960     46.974778    0.00000    0.00000    0.00000    1    diag
    3      0.292D-02      0.118D-02       -22.38173915     47.156356    0.00000    0.00000   -0.00000    2    diag
    4      0.606D-03      0.439D-03       -22.38202453     47.093724    0.00000    0.00000    0.00000    3    diag
    5      0.120D-03      0.123D-03       -22.38205529     47.106655    0.00000    0.00000    0.00000    4    diag
    6      0.724D-04      0.958D-05       -22.38205559     47.106906    0.00000    0.00000    0.00000    5    diag
    7      0.823D-05      0.110D-05       -22.38205560     47.106886    0.00000    0.00000    0.00000    6    diag
    8      0.806D-06      0.121D-06       -22.38205560     47.106886    0.00000    0.00000   -0.00000    0    orth

 Final occupancy:   3   2   2   0

 !RHF STATE 1.1 Energy                -22.382055595483
 Nuclear energy                         8.78972316
 One-electron energy                  -54.72522184
 Two-electron energy                   23.55344308
 Virial quotient                       -3.30534980
 !RHF STATE 1.1 Dipole moment           0.00000000     0.00000000    -0.00000000
 Dipole moment /Debye                   0.00000000     0.00000000    -0.00000000

 Orbital energies:

         1.1          2.1          3.1          4.1          5.1
     -0.927113    -0.852395    -0.441341    -0.063858     0.042421

         1.2          2.2          3.2          4.2
     -0.422818    -0.371341     0.054191     0.068084

         1.3          2.3          3.3          4.3
     -0.422818    -0.371341     0.054191     0.068084

         1.4          2.4
      0.141283     0.192187

 HOMO      2.2    -0.371341 =     -10.1047eV
 LUMO      4.1    -0.063858 =      -1.7377eV
 LUMO-HOMO         0.307483 =       8.3670eV


 **********************************************************************************************************************************
 DATASETS  * FILE   NREC   LENGTH (MB)   RECORD NAMES
              1      19       22.00       500      610      700      900      950      970     1000      129      960     1100   
                                          VAR    BASINP    GEOM    SYMINP    ZMAT    AOBASIS   BASIS     P2S    ABASIS      S 
                                         1400     1410     1420     1200     1210     1080     1600     1650     1700   
                                           T        V       ECP      H0       H01     AOSYM     SMH    MOLCAS    OPER   

              2       4        3.81       700     1000      520     2100   
                                         GEOM     BASIS   MCVARS     RHF  

 PROGRAMS   *        TOTAL       RHF       INT  UCCSD(T)       RHF       INT
 CPU TIMES  *       418.69      9.05     99.49    162.33     10.81    136.91
 REAL TIME  *       597.00 SEC
 DISK USED  *         8.83 GB      
 SF USED    *         3.14 GB      
 GA USED    *         0.00 MB       (max)       0.00 MB       (current)
 **********************************************************************************************************************************
 SETTING SCF(2)         =       -22.38205560  AU                              
 SETTING _CC_NORM_MAX   =         2.00000000                                  


 PROGRAM * CCSD (Unrestricted open-shell coupled cluster)     Authors: C. Hampel, H.-J. Werner, 1991, M. Deegan, P.J. Knowles, 1992


 Convergence thresholds:  THRVAR = 1.00D-08  THRDEN = 1.00D-06

 CCSD(T)     terms to be evaluated (factor= 1.000)


 Number of closed-shell orbitals:   7 (   3   2   2   0 )
 Number of external orbitals:     405 ( 161  94  94  56 )

 Memory could be reduced to 238.97 Mwords without degradation in triples

 Number of N-1 electron functions:              14
 Number of N-2 electron functions:              91
 Number of singly external CSFs:              1718
 Number of doubly external CSFs:           2923117
 Total number of CSFs:                     2924835

 Molecular orbitals read from record     2100.2  Type=RHF/CANONICAL (state 1.1)

 Integral transformation finished. Total CPU:   6.36 sec, npass=  1  Memory used:  18.37 MW

 Starting RMP2 calculation

 ITER.      SQ.NORM     CORR.ENERGY   TOTAL ENERGY   ENERGY CHANGE        DEN1      VAR(S)    VAR(P)  DIIS     TIME
   1      1.16256174    -0.35415680   -22.73621240    -0.35415680    -0.00839138  0.16D-12  0.43D-02  1  1     6.56
   2      1.17594339    -0.36434565   -22.74640125    -0.01018885    -0.00007473  0.11D-13  0.53D-04  2  2     6.71
   3      1.17712269    -0.36481230   -22.74686789    -0.00046665    -0.00000118  0.68D-15  0.92D-06  3  3     6.90
   4      1.17720703    -0.36483150   -22.74688710    -0.00001920    -0.00000001  0.42D-16  0.99D-08  4  4     7.09
   5      1.17721101    -0.36483257   -22.74688816    -0.00000107    -0.00000000  0.34D-17  0.17D-09  5  5     7.29
   6      1.17721120    -0.36483262   -22.74688822    -0.00000005    -0.00000000  0.25D-18  0.33D-11  6  6     7.52

 Norm of t1 vector:      0.00000178      S-energy:    -0.00000000      T1 diagnostic:  0.00000034
 Norm of t2 vector:      0.42096461      P-energy:    -0.36483262
                                         Alpha-Beta:  -0.28875297
                                         Alpha-Alpha: -0.03803982
                                         Beta-Beta:   -0.03803982

 Spin contamination <S**2-Sz**2-Sz>     0.00000000
  Reference energy                    -22.382055595483
  RHF-RMP2 correlation energy          -0.364832621818
 !RHF-RMP2 energy                     -22.746888217301

 Starting UCCSD calculation

 ITER.      SQ.NORM     CORR.ENERGY   TOTAL ENERGY   ENERGY CHANGE        DEN1      VAR(S)    VAR(P)  DIIS     TIME
   1      1.17211104    -0.36256075   -22.74461634    -0.36256075    -0.01629988  0.58D-03  0.69D-02  1  1    13.09
   2      1.20101657    -0.38177222   -22.76382782    -0.01921147    -0.00093528  0.86D-04  0.45D-03  2  2    18.57
   3      1.20945230    -0.38453498   -22.76659058    -0.00276276    -0.00010888  0.14D-04  0.59D-04  3  3    24.13
   4      1.21302261    -0.38532645   -22.76738204    -0.00079146    -0.00001488  0.20D-05  0.84D-05  4  4    29.68
   5      1.21422801    -0.38550594   -22.76756154    -0.00017949    -0.00000195  0.28D-06  0.10D-05  5  5    35.26
   6      1.21448933    -0.38551887   -22.76757446    -0.00001293    -0.00000031  0.29D-07  0.20D-06  6  6    40.83
   7      1.21454491    -0.38552336   -22.76757896    -0.00000449    -0.00000008  0.42D-08  0.56D-07  6  1    46.40
   8      1.21456030    -0.38552491   -22.76758051    -0.00000155    -0.00000001  0.41D-09  0.11D-07  6  2    51.95
   9      1.21456438    -0.38552568   -22.76758128    -0.00000077    -0.00000000  0.20D-09  0.17D-08  6  3    57.51

 Norm of t1 vector:      0.05549708      S-energy:    -0.00000001      T1 diagnostic:  0.01048796
                                                                       D1 diagnostic:  0.02459607
 Norm of t2 vector:      0.45987439      P-energy:    -0.38552567
                                         Alpha-Beta:  -0.31501731
                                         Alpha-Alpha: -0.03525418
                                         Beta-Beta:   -0.03525418

 Doubles amplitudes (print threshold =  0.500E-01):

         I         J         SYM. A    SYM. B    A         B      T(IJ, AB) [Alpha-Beta]

         3         3         1         1         1         1     -0.14775503

 Spin contamination <S**2-Sz**2-Sz>     0.00000000

 Memory could be reduced to 237.31 Mwords without degradation in triples
 

 RESULTS
 =======

  Reference energy                    -22.382055595483
  UCCSD singles energy                 -0.000000012696
  UCCSD pair energy                    -0.385525667995
  UCCSD correlation energy             -0.385525680691
  Triples (T) contribution             -0.022268308037
  Total correlation energy             -0.407793988728
 
  RHF-UCCSD energy                    -22.767581276174
  RHF-UCCSD[T] energy                 -22.790058537685
  RHF-UCCSD-T energy                  -22.789794096188
 !RHF-UCCSD(T) energy                 -22.789849584211

 Program statistics:

 Available memory in ccsd:               511999438
 Min. memory needed in ccsd:               9124914
 Max. memory used in ccsd:                12600551
 Max. memory used in cckext:              11740758 ( 9 integral passes)
 Max. memory used in cckint:              18374905 ( 1 integral passes)



 **********************************************************************************************************************************
 DATASETS  * FILE   NREC   LENGTH (MB)   RECORD NAMES
              1      19       22.00       500      610      700      900      950      970     1000      129      960     1100   
                                          VAR    BASINP    GEOM    SYMINP    ZMAT    AOBASIS   BASIS     P2S    ABASIS      S 
                                         1400     1410     1420     1200     1210     1080     1600     1650     1700   
                                           T        V       ECP      H0       H01     AOSYM     SMH    MOLCAS    OPER   

              2       4        3.81       700     1000      520     2100   
                                         GEOM     BASIS   MCVARS     RHF  

 PROGRAMS   *        TOTAL  UCCSD(T)       RHF       INT  UCCSD(T)       RHF       INT
 CPU TIMES  *       593.07    174.37      9.05     99.49    162.33     10.81    136.91
 REAL TIME  *      1136.83 SEC
 DISK USED  *         8.83 GB      
 SF USED    *         3.14 GB      
 GA USED    *         0.00 MB       (max)       0.00 MB       (current)
 **********************************************************************************************************************************
 SETTING CCSD(2)        =       -22.78984958  AU                              
 SETTING BASIS          =    USERDEF

Geometry recognized as XYZ



 Recomputing integrals since geometry and symmetry changed


 Using spherical harmonics



 PROGRAM * SEWARD (Integral evaluation for generally contracted gaussian basis sets)     Author: Roland Lindh, 1990

 Geometry written to block  1 of record 701

 Orientation using atomic masses  
 Molecule type: Atom
 Symmetry elements: X,Y,Z
 Rotational constants:       0.0000000      0.0000000      0.0000000 GHz  (calculated with average atomic masses)

 Point group  D2h 



 ATOMIC COORDINATES

 NR  ATOM    CHARGE       X              Y              Z

   1  I       7.00    0.000000000    0.000000000    0.000000000

 NUCLEAR CHARGE:                    7
 NUMBER OF PRIMITIVE AOS:         270
 NUMBER OF SYMMETRY AOS:          206
 NUMBER OF CONTRACTIONS:          206   (  54Ag  +  28B3u +  28B2u +  20B1g +  28B1u +  20B2g +  20B3g +   8Au  )
 NUMBER OF CORE ORBITALS:           0   (   0Ag  +   0B3u +   0B2u +   0B1g +   0B1u +   0B2g +   0B3g +   0Au  )
 NUMBER OF VALENCE ORBITALS:        4   (   1Ag  +   1B3u +   1B2u +   0B1g +   1B1u +   0B2g +   0B3g +   0Au  )

 MOLECULE CHANGED: INITIALIZING OCCUPATION AND DUMP RECORDS


 NUCLEAR REPULSION ENERGY    0.00000000

 EXTRA SYMMETRY OF AOS IN SYMMETRY 1:   1 1 1 1 1 1 1 1 1 1   1 1 1 1 1 1 1 2 3 2   3 2 3 2 3 2 3 2 3 2   3 2 3 2 3 2 3 2 3 2
                                        3 2 3 2 3 4 5 6 4 5   6 4 5 6
 EXTRA SYMMETRY OF AOS IN SYMMETRY 2:   1 1 1 1 1 1 1 1 1 1   1 1 1 1 2 3 2 3 2 3   2 3 4 5 6 4 5 6
 EXTRA SYMMETRY OF AOS IN SYMMETRY 3:   1 1 1 1 1 1 1 1 1 1   1 1 1 1 2 3 2 3 2 3   2 3 4 5 6 4 5 6
 EXTRA SYMMETRY OF AOS IN SYMMETRY 4:   1 1 1 1 1 1 1 1 1 1   1 1 1 1 2 3 2 3 2 3
 EXTRA SYMMETRY OF AOS IN SYMMETRY 5:   1 1 1 1 1 1 1 1 1 1   1 1 1 1 2 3 2 3 2 3   2 3 4 5 6 4 5 6
 EXTRA SYMMETRY OF AOS IN SYMMETRY 6:   1 1 1 1 1 1 1 1 1 1   1 1 1 1 2 3 2 3 2 3
 EXTRA SYMMETRY OF AOS IN SYMMETRY 7:   1 1 1 1 1 1 1 1 1 1   1 1 1 1 2 3 2 3 2 3
 EXTRA SYMMETRY OF AOS IN SYMMETRY 8:   1 1 1 1 2 3 2 3

 Eigenvalues of metric

         1 0.173E-04 0.124E-03 0.272E-03 0.272E-03 0.493E-03 0.165E-02 0.165E-02 0.190E-02
         2 0.220E-03 0.122E-02 0.425E-02 0.118E-01 0.250E-01 0.250E-01 0.320E-01 0.809E-01
         3 0.220E-03 0.122E-02 0.425E-02 0.118E-01 0.250E-01 0.250E-01 0.320E-01 0.809E-01
         4 0.272E-03 0.165E-02 0.687E-02 0.229E-01 0.564E-01 0.111E+00 0.120E+00 0.120E+00
         5 0.220E-03 0.122E-02 0.425E-02 0.118E-01 0.250E-01 0.250E-01 0.320E-01 0.809E-01
         6 0.272E-03 0.165E-02 0.687E-02 0.229E-01 0.564E-01 0.111E+00 0.120E+00 0.120E+00
         7 0.272E-03 0.165E-02 0.687E-02 0.229E-01 0.564E-01 0.111E+00 0.120E+00 0.120E+00
         8 0.250E-01 0.181E+00 0.181E+00 0.212E+00 0.992E+00 0.182E+01 0.182E+01 0.277E+01


 Contracted 2-electron integrals neglected if value below      1.0D-12
 AO integral compression algorithm  1   Integral accuracy      1.0D-12

     174.588 MB (compressed) written to integral file ( 42.6%)

     Node minimum: 46.399 MB, node maximum: 79.692 MB


 NUMBER OF SORTED TWO-ELECTRON INTEGRALS:    9829824.     BUFFER LENGTH:  32768
 NUMBER OF SEGMENTS:   1  SEGMENT LENGTH:    9829824      RECORD LENGTH: 524288

 Memory used in sort:      10.39 MW

 SORT1 READ    51224722. AND WROTE     6434454. INTEGRALS IN     19 RECORDS. CPU TIME:     1.03 SEC, REAL TIME:     2.53 SEC
 SORT2 READ    19130330. AND WROTE    29443005. INTEGRALS IN    912 RECORDS. CPU TIME:     0.24 SEC, REAL TIME:     0.37 SEC

 Node minimum:     9786438.  Node maximum:     9829824. integrals

 OPERATOR DM      FOR CENTER  0  COORDINATES:    0.000000    0.000000    0.000000


 **********************************************************************************************************************************
 DATASETS  * FILE   NREC   LENGTH (MB)   RECORD NAMES
              1      20       20.40       500      610      700      701      900      950      970     1001      129      960   
                                          VAR    BASINP    GEOM     GEOM    SYMINP    ZMAT    AOBASIS   BASIS     P2S    ABASIS    
                                         1100     1400     1410     1420     1200     1210     1080     1600     1650     1700   
                                           S        T        V       ECP      H0       H01     AOSYM     SMH    MOLCAS    OPER   

              2       6        5.01       700     1000      520     2100      701     1001   
                                         GEOM     BASIS   MCVARS     RHF     GEOM     BASIS   

 PROGRAMS   *        TOTAL       INT  UCCSD(T)       RHF       INT  UCCSD(T)       RHF       INT
 CPU TIMES  *       597.93      4.86    174.37      9.05     99.49    162.33     10.81    136.91
 REAL TIME  *      1144.65 SEC
 DISK USED  *         8.83 GB      
 SF USED    *         3.14 GB      
 GA USED    *         0.00 MB       (max)       0.00 MB       (current)
 **********************************************************************************************************************************


 PROGRAM * RHF-SCF (OPEN SHELL)       Authors: W. Meyer, H.-J. Werner


 NUMBER OF ELECTRONS:       4+    3-    SPACE SYMMETRY=3    SPIN SYMMETRY: Doublet 
 CONVERGENCE THRESHOLDS:    1.00E-05 (Density)    1.00E-07 (Energy)
 MAX. NUMBER OF ITERATIONS:       60
 INTERPOLATION TYPE:            DIIS
 INTERPOLATION STEPS:              2 (START)      1 (STEP)
 LEVEL SHIFTS:                 -0.60 (CLOSED) -0.30 (OPEN) 

 Number of closed-shell orbitals:    3 (   1   1   0   0   1   0   0   0 )
 Number of open-shell orbitals:      1 (   0   0   1   0   0   0   0   0 )


 Orbital guess generated from atomic densities. Full valence occupancy:    1   1   1   0   1   0   0   0


 Molecular orbital dump at record        2101.2

 ITERATION    DDIFF          GRAD             ENERGY        2-EL.EN.            DIPOLE MOMENTS         DIIS   ORB.
    1      0.000D+00      0.000D+00       -11.17775217     14.742794    0.00000    0.00000    0.00000    0    start
    2      0.000D+00      0.267D-02       -11.18011549     14.808916    0.00000    0.00000    0.00000    1    diag,B
    3      0.668D-03      0.989D-03       -11.18059296     14.843292    0.00000    0.00000    0.00000    2    diag,B
    4      0.407D-03      0.234D-03       -11.18062356     14.848451    0.00000    0.00000    0.00000    3    diag,B
    5      0.219D-03      0.481D-04       -11.18062502     14.849464    0.00000    0.00000    0.00000    4    diag,B
    6      0.878D-04      0.119D-04       -11.18062510     14.849722    0.00000    0.00000    0.00000    5    diag,B
    7      0.186D-04      0.359D-05       -11.18062511     14.849780    0.00000    0.00000    0.00000    6    fixocc
    8      0.690D-05      0.133D-05       -11.18062511     14.849791    0.00000    0.00000    0.00000    0    orth

 Final alpha occupancy:   1   1   1   0   1   0   0   0
 Final beta  occupancy:   1   1   0   0   1   0   0   0

 !RHF STATE 1.3 Energy                -11.180625113650
 Nuclear energy                         0.00000000
 One-electron energy                  -18.60552039
 Two-electron energy                    7.42489527
 Virial quotient                       -3.26867522
 !RHF STATE 1.3 Dipole moment           0.00000000     0.00000000     0.00000000
 Dipole moment /Debye                   0.00000000     0.00000000     0.00000000

 Orbital energies:

         1.1          2.1          3.1
     -0.872991     0.049345     0.145255

         1.2          2.2          3.2
     -0.389389     0.054905     0.230881

         1.3          2.3          3.3
     -0.452194     0.050879     0.218448

         1.4          2.4
      0.149543     0.384089

         1.5          2.5          3.5
     -0.389389     0.054905     0.230881

         1.6          2.6
      0.159022     0.403756

         1.7          2.7
      0.149543     0.384089

         1.8          2.8
      0.365024     0.819349

 HOMO      1.2    -0.389389 =     -10.5958eV
 LUMO      2.1     0.049345 =       1.3428eV
 LUMO-HOMO         0.438735 =      11.9386eV


 **********************************************************************************************************************************
 DATASETS  * FILE   NREC   LENGTH (MB)   RECORD NAMES
              1      20       20.42       500      610      700      701      900      950      970     1001      129      960   
                                          VAR    BASINP    GEOM     GEOM    SYMINP    ZMAT    AOBASIS   BASIS     P2S    ABASIS    
                                         1100     1400     1410     1420     1200     1210     1080     1600     1650     1700   
                                           S        T        V       ECP      H0       H01     AOSYM     SMH    MOLCAS    OPER   

              2       7        7.69       700     1000      520     2100      701     1001     2101   
                                         GEOM     BASIS   MCVARS     RHF     GEOM     BASIS     RHF  

 PROGRAMS   *        TOTAL       RHF       INT  UCCSD(T)       RHF       INT  UCCSD(T)       RHF       INT
 CPU TIMES  *       598.30      0.38      4.86    174.37      9.05     99.49    162.33     10.81    136.91
 REAL TIME  *      1145.15 SEC
 DISK USED  *         8.83 GB      
 SF USED    *         3.14 GB      
 GA USED    *         0.00 MB       (max)       0.00 MB       (current)
 **********************************************************************************************************************************
 SETTING A_SCF          =       -11.18062511  AU                              
 SETTING B_SCF          =       -11.18062511  AU                              
 SETTING _CC_NORM_MAX   =         2.00000000                                  


 PROGRAM * CCSD (Unrestricted open-shell coupled cluster)     Authors: C. Hampel, H.-J. Werner, 1991, M. Deegan, P.J. Knowles, 1992


 Convergence thresholds:  THRVAR = 1.00D-08  THRDEN = 1.00D-06

 CCSD(T)     terms to be evaluated (factor= 1.000)


 Number of closed-shell orbitals:   3 (   1   1   0   0   1   0   0   0 )
 Number of active  orbitals:        1 (   0   0   1   0   0   0   0   0 )
 Number of external orbitals:     202 (  53  27  27  20  27  20  20   8 )

 Memory could be reduced to 15.57 Mwords without degradation in triples

 Number of N-1 electron functions:               7
 Number of N-2 electron functions:              21
 Number of singly external CSFs:               242
 Number of doubly external CSFs:             88479
 Total number of CSFs:                       88721

 Molecular orbitals read from record     2101.2  Type=RHF/CANONICAL (state 1.3)

 Integral transformation finished. Total CPU:   0.16 sec, npass=  1  Memory used:   1.66 MW

 Starting RMP2 calculation

 ITER.      SQ.NORM     CORR.ENERGY   TOTAL ENERGY   ENERGY CHANGE        DEN1      VAR(S)    VAR(P)  DIIS     TIME
   1      1.06977598    -0.15948567   -11.34011078    -0.15948567    -0.00094882  0.18D-04  0.48D-03  1  1     0.17
   2      1.07101408    -0.16053012   -11.34115523    -0.00104444    -0.00000149  0.59D-07  0.80D-06  2  2     0.17
   3      1.07104584    -0.16054484   -11.34116995    -0.00001472    -0.00000000  0.88D-09  0.19D-08  3  3     0.29
   4      1.07104631    -0.16054494   -11.34117005    -0.00000010    -0.00000000  0.16D-10  0.84D-11  4  4     0.30

 Norm of t1 vector:      0.04895233      S-energy:    -0.00318323      T1 diagnostic:  0.00010150
 Norm of t2 vector:      0.26201140      P-energy:    -0.15736171
                                         Alpha-Beta:  -0.12664501
                                         Alpha-Alpha: -0.02077238
                                         Beta-Beta:   -0.00994432

 Spin contamination <S**2-Sz**2-Sz>     0.00367747
  Reference energy                    -11.180625113650
  RHF-RMP2 correlation energy          -0.160544938674
 !RHF-RMP2 energy                     -11.341170052325

 Starting UCCSD calculation

 ITER.      SQ.NORM     CORR.ENERGY   TOTAL ENERGY   ENERGY CHANGE        DEN1      VAR(S)    VAR(P)  DIIS     TIME
   1      1.07904537    -0.16771578   -11.34834089    -0.16771578    -0.00517501  0.34D-03  0.20D-02  1  1     0.44
   2      1.08713239    -0.17363316   -11.35425828    -0.00591739    -0.00018175  0.53D-05  0.79D-04  2  2     0.64
   3      1.08848508    -0.17422279   -11.35484790    -0.00058962    -0.00001232  0.76D-06  0.60D-05  3  3     0.79
   4      1.08880648    -0.17432626   -11.35495138    -0.00010347    -0.00000095  0.63D-07  0.51D-06  4  4     0.94
   5      1.08888548    -0.17434841   -11.35497353    -0.00002215    -0.00000006  0.83D-08  0.35D-07  5  5     1.26
   6      1.08889033    -0.17434782   -11.35497294     0.00000059    -0.00000001  0.79D-09  0.35D-08  6  6     1.42

 Norm of t1 vector:      0.05863012      S-energy:    -0.00341857      T1 diagnostic:  0.00640463
                                                                       D1 diagnostic:  0.01221332
 Norm of t2 vector:      0.29232317      P-energy:    -0.17092925
                                         Alpha-Beta:  -0.14114716
                                         Alpha-Alpha: -0.02020807
                                         Beta-Beta:   -0.00957402

 Spin contamination <S**2-Sz**2-Sz>     0.00263375

 Memory could be reduced to 11.81 Mwords without degradation in triples
 

 RESULTS
 =======

  Reference energy                    -11.180625113650
  UCCSD singles energy                 -0.003418570633
  UCCSD pair energy                    -0.170929253401
  UCCSD correlation energy             -0.174347824035
  Triples (T) contribution             -0.007395404086
  Total correlation energy             -0.181743228121
 
  RHF-UCCSD energy                    -11.354972937685
  RHF-UCCSD[T] energy                 -11.362314240841
  RHF-UCCSD-T energy                  -11.362367991373
 !RHF-UCCSD(T) energy                 -11.362368341771

 Program statistics:

 Available memory in ccsd:               511999732
 Min. memory needed in ccsd:                413798
 Max. memory used in ccsd:                  501617
 Max. memory used in cckext:                451508 ( 6 integral passes)
 Max. memory used in cckint:               1664357 ( 1 integral passes)



 **********************************************************************************************************************************
 DATASETS  * FILE   NREC   LENGTH (MB)   RECORD NAMES
              1      20       20.42       500      610      700      701      900      950      970     1001      129      960   
                                          VAR    BASINP    GEOM     GEOM    SYMINP    ZMAT    AOBASIS   BASIS     P2S    ABASIS    
                                         1100     1400     1410     1420     1200     1210     1080     1600     1650     1700   
                                           S        T        V       ECP      H0       H01     AOSYM     SMH    MOLCAS    OPER   

              2       7        7.69       700     1000      520     2100      701     1001     2101   
                                         GEOM     BASIS   MCVARS     RHF     GEOM     BASIS     RHF  

 PROGRAMS   *        TOTAL  UCCSD(T)       RHF       INT  UCCSD(T)       RHF       INT  UCCSD(T)       RHF       INT
 CPU TIMES  *       600.46      2.16      0.38      4.86    174.37      9.05     99.49    162.33     10.81    136.91
 REAL TIME  *      1150.08 SEC
 DISK USED  *         8.83 GB      
 SF USED    *         3.14 GB      
 GA USED    *         0.00 MB       (max)       0.00 MB       (current)
 **********************************************************************************************************************************
 SETTING A_CCSD         =       -11.36236834  AU                              
 SETTING B_CCSD         =       -11.36236834  AU                              
                                                                                                                                                                                                                                                                

      Z        SCF            CCSD           A_SCF          A_CCSD         B_SCF          B_CCSD
    2.35   -22.37289062   -22.77882218   -11.18062511   -11.36236834   -11.18062511   -11.36236834
    2.95   -22.38205560   -22.78984958     0.00000000     0.00000000     0.00000000     0.00000000
                                                  

 UCCSD(T)/USERDEF energy=    -11.362368341771

        UCCSD(T)        RHF-SCF         UCCSD(T)        RHF-SCF         UCCSD(T)        RHF-SCF 
    -11.36236834    -11.18062511    -22.78984958    -22.38205560    -22.77882218    -22.37289062
 **********************************************************************************************************************************
 Molpro calculation terminated
 Variable memory released
